/*--------------------------------*- C++ -*----------------------------------*\
  =========                 |
  \\      /  F ield         | OpenFOAM: The Open Source CFD Toolbox
   \\    /   O peration     | Website:  https://openfoam.org
    \\  /    A nd           | Version:  9
     \\/     M anipulation  |
\*---------------------------------------------------------------------------*/
FoamFile
{
    format      ascii;
    class       volScalarField;
    location    "0.019";
    object      C;
}
// * * * * * * * * * * * * * * * * * * * * * * * * * * * * * * * * * * * * * //

dimensions      [0 0 0 0 0 0 0];

internalField   nonuniform List<scalar> 
1000
(
1.182451623e-27
0
0
2.818992484e-28
6.112324931e-28
6.633974721e-28
2.244588895e-27
4.338674157e-27
4.166215991e-27
2.453830777e-27
3.489746138e-27
3.692033934e-27
4.960262244e-27
6.366260007e-27
6.675786764e-27
7.148148347e-27
4.44598625e-27
4.304324825e-27
7.73417617e-27
8.280129386e-27
1.079285968e-26
8.116562827e-27
6.753991788e-27
8.888029619e-27
8.127632188e-27
7.720484595e-27
8.404268739e-27
3.345257779e-27
0
1.555285547e-27
4.791611682e-29
3.973142311e-28
1.141284218e-27
2.298896575e-27
4.339832206e-27
4.866694908e-27
6.917672543e-27
4.696162599e-27
3.004196497e-27
1.655051314e-27
2.027047436e-27
1.882005488e-27
4.697496184e-27
7.676584211e-27
9.764619362e-27
7.200866365e-27
4.066268218e-27
3.116137294e-27
0
5.831869117e-28
1.994313733e-27
1.613702513e-27
6.977434554e-27
8.528392525e-27
7.939834796e-27
8.034258138e-27
7.784606346e-27
4.931850902e-27
3.401944977e-27
4.089580656e-27
3.503996801e-27
5.655725482e-27
2.415555429e-27
2.176632857e-27
4.513347284e-27
5.596356688e-27
7.613450572e-27
7.777152565e-27
6.041248289e-27
5.192127223e-27
3.283436974e-27
2.758339265e-27
0
2.767202153e-27
7.615647025e-27
9.710013278e-27
8.071722168e-27
6.340236024e-27
6.53018627e-27
6.168213195e-27
7.055166764e-27
3.270631605e-27
4.103142436e-27
4.713972171e-27
6.309036553e-27
1.046497186e-26
1.017528226e-26
1.073755373e-26
8.81946256e-27
6.774527009e-27
3.89082084e-27
3.319856831e-27
4.85411772e-27
7.637031282e-27
7.588954387e-27
6.889224142e-27
6.931162607e-27
7.607349692e-27
7.601812667e-27
5.460265336e-27
7.440859157e-27
9.574559556e-27
6.131418277e-27
9.094869562e-27
8.956202024e-27
7.755779338e-27
7.855779166e-27
7.741390161e-27
6.699560842e-27
7.022893713e-27
5.341319392e-27
5.887353444e-27
7.116234469e-27
6.925359905e-27
7.552297984e-27
6.410653454e-27
5.559738248e-27
7.647250988e-27
7.575275471e-27
1.088800577e-26
9.311191949e-27
4.945785619e-27
3.338527325e-27
1.830076073e-27
2.617275312e-27
5.249565404e-27
7.013754858e-27
2.446173258e-27
2.332433566e-27
3.016912813e-27
2.334416667e-27
2.787115809e-27
8.199844756e-27
1.045259686e-26
1.313698294e-26
1.02960836e-26
1.065182702e-26
9.072748114e-27
8.495214348e-27
5.431192861e-27
5.752246804e-27
8.296328684e-27
8.79096235e-27
8.605745099e-27
1.024090296e-26
9.44191237e-27
9.446684673e-27
7.913552138e-27
1.001716315e-26
4.23612902e-27
5.67498949e-27
5.626312563e-27
1.366430323e-26
1.306689713e-26
9.447667609e-27
9.913868512e-27
1.202598672e-26
1.484208079e-26
2.033244501e-26
2.047249277e-26
2.013546189e-26
1.856566332e-26
1.531821727e-26
1.215784031e-26
9.817551081e-27
9.511638386e-27
9.591561209e-27
8.974910989e-27
1.104782422e-26
1.114838968e-26
1.205223938e-26
1.313615311e-26
1.235157256e-26
1.273490222e-26
1.145730336e-26
1.063086942e-26
1.015011386e-26
1.063931542e-26
1.031844827e-26
1.097761297e-26
6.331785736e-27
5.638126678e-27
6.090172145e-27
8.708678789e-27
1.443550646e-26
1.722178493e-26
1.672732566e-26
1.627886478e-26
1.432760273e-26
1.436389903e-26
9.802190254e-27
8.918812028e-27
7.420678911e-27
7.624171343e-27
6.341634157e-27
8.084988677e-27
6.297285295e-27
6.769313029e-27
6.606196274e-27
6.210510322e-27
5.171345292e-27
3.199341166e-27
4.275477651e-27
3.148620876e-27
1.046979634e-27
2.338771022e-27
6.602399836e-27
9.775764847e-27
1.24597134e-26
1.239068303e-26
1.128664912e-26
1.270409347e-26
1.318619298e-26
1.005865756e-26
1.183563126e-26
1.234136649e-26
1.283507062e-26
1.547075799e-26
1.654231566e-26
1.371124425e-26
1.000801963e-26
1.141999879e-26
1.118784468e-26
1.050252968e-26
1.001359331e-26
9.871209176e-27
1.007730549e-26
1.130959634e-26
1.043387347e-26
8.897987767e-27
1.080603063e-26
8.977674161e-27
7.982329285e-27
9.885059304e-27
9.767721437e-27
9.562498502e-27
7.350180344e-27
9.045110352e-27
6.946562362e-27
6.425122077e-27
1.02740372e-26
1.489613913e-26
1.721735804e-26
1.633882491e-26
1.483515977e-26
1.152224912e-26
1.087663672e-26
1.13065975e-26
1.200334878e-26
1.816834469e-26
1.891633024e-26
1.803719633e-26
1.628310445e-26
1.200189701e-26
8.237372156e-27
6.135194369e-27
7.541250982e-27
1.153548045e-26
1.034447108e-26
1.115512627e-26
9.590820023e-27
1.153584075e-26
1.050502595e-26
1.080329334e-26
8.541005439e-27
6.936056112e-27
4.52164663e-27
8.531188501e-27
9.421440631e-27
8.452548066e-27
7.790307277e-27
7.449808739e-27
1.065850841e-26
1.186010813e-26
1.325661559e-26
1.460565125e-26
1.294962082e-26
1.354551611e-26
1.195153682e-26
1.087852435e-26
1.565276348e-26
1.968291101e-26
1.704659613e-26
1.788498168e-26
1.612076427e-26
1.267940374e-26
1.273515898e-26
1.122022603e-26
1.576333547e-26
1.311209861e-26
1.477216754e-26
1.408757815e-26
1.243593425e-26
1.101262267e-26
9.677894719e-27
7.808104994e-27
8.239481742e-27
8.076992478e-27
6.882593252e-27
5.190785088e-27
5.726363424e-27
7.040483702e-27
8.723093262e-27
9.288060003e-27
9.307423067e-27
7.409101111e-27
7.985804608e-27
5.548744685e-27
6.358445018e-27
7.08727255e-27
7.194898675e-27
8.560484104e-27
8.545094209e-27
1.092228113e-26
1.244459131e-26
1.403367479e-26
1.193971329e-26
1.384932598e-26
7.750686991e-27
1.063969301e-26
1.014201622e-26
7.698046978e-27
7.506034011e-27
6.391585268e-27
7.393495835e-27
6.996963987e-27
7.91603919e-27
7.415798629e-27
5.443618627e-27
5.728130483e-27
9.38113062e-27
1.221784602e-26
1.126420659e-26
1.024082806e-26
9.652244995e-27
1.293286601e-26
1.350493892e-26
1.269320818e-26
1.581623621e-26
1.471557391e-26
1.499541688e-26
1.525394817e-26
1.316501497e-26
1.550028534e-26
1.527099109e-26
1.566293409e-26
1.602073814e-26
1.619534161e-26
1.58043065e-26
1.221652175e-26
1.195181265e-26
1.132062314e-26
1.525679042e-26
1.608497662e-26
1.545522008e-26
1.66191216e-26
1.534614307e-26
1.283704603e-26
1.342675381e-26
1.176592341e-26
1.414956908e-26
1.804434361e-26
2.295716454e-26
2.499632522e-26
2.701522675e-26
3.241183413e-26
4.437388486e-26
6.117447966e-26
8.261904585e-26
1.141034615e-25
1.561929543e-25
2.094906319e-25
2.866472029e-25
3.904681163e-25
5.28643676e-25
7.154597141e-25
9.738679479e-25
1.323359715e-24
1.796689956e-24
2.439598651e-24
3.305922215e-24
4.486877512e-24
6.077145572e-24
8.237677596e-24
1.117411408e-23
1.514770019e-23
2.054427313e-23
2.786077822e-23
3.7786496e-23
5.125416902e-23
6.952586651e-23
9.429696075e-23
1.27899786e-22
1.734688698e-22
2.352647257e-22
3.190750474e-22
4.327317305e-22
5.868643731e-22
7.958774146e-22
1.079306454e-21
1.463643808e-21
1.984798104e-21
2.691472086e-21
3.649680738e-21
4.948925699e-21
6.710550185e-21
9.099076472e-21
1.23375407e-20
1.672831131e-20
2.268129219e-20
3.075218838e-20
4.169431334e-20
5.652887967e-20
7.664024043e-20
1.039050283e-19
1.408671755e-19
1.909752771e-19
2.589044687e-19
3.509933015e-19
4.758373309e-19
6.45097797e-19
8.746088213e-19
1.185908662e-18
1.608398709e-18
2.182498467e-18
2.964547935e-18
4.035166647e-18
5.515277076e-18
7.60066615e-18
1.064395867e-17
1.536171771e-17
2.337726063e-17
3.867158616e-17
7.056143034e-17
1.412912929e-16
3.058440845e-16
7.007245213e-16
1.666032783e-15
4.050942713e-15
9.978338791e-15
2.475923648e-14
6.168672862e-14
1.540420939e-13
3.851643644e-13
9.63758142e-13
2.412474191e-12
6.04004513e-12
1.512298868e-11
3.786226495e-11
9.477797847e-11
2.371965001e-10
5.934512286e-10
1.484304794e-09
3.711232463e-09
9.276360404e-09
2.318039209e-08
5.791350105e-08
1.446772612e-07
3.614456601e-07
9.032066573e-07
2.258056984e-06
5.487827576e-06
1.316365384e-05
3.149747113e-05
7.564721364e-05
0.000183013515
0.0004473441238
0.001106785647
0.002773310049
0.007016394445
0.01773613508
0.0437459081
0.1013207934
0.2057189012
0.3521558458
0.5109842011
0.6517928954
0.7621695261
0.8397507333
0.8894637272
0.9196099641
0.9377256996
0.9489627643
0.9563883155
0.9617018814
0.9657842191
0.9690784866
0.9718351966
0.9741994706
0.9762607142
0.9780776693
0.9796915488
0.9811331107
0.9824260037
0.9835897248
0.9846402798
0.9855915194
0.9864550572
0.9872409715
0.9879580136
0.9886137101
0.9892146228
0.9897665009
0.9902743972
0.99074276
0.9911755169
0.9915761409
0.9919477147
0.9922929901
0.9926144239
0.9929141692
0.9931941539
0.9934561233
0.9937016711
0.9939321739
0.9941488861
0.9943529711
0.9945454283
0.9947271953
0.994899099
0.9950618893
0.9952162544
0.995362802
0.9955021024
0.9956346537
0.9957609225
0.9958813243
0.9959962373
0.9961060175
0.9962109698
0.9963114098
0.9964075866
0.9964997489
0.9965881278
0.9966729207
0.9967543326
0.9968325385
0.996907698
0.9969799802
0.9970494882
0.9971163818
0.9971808063
0.9972428778
0.9973027011
0.9973603842
0.9974160414
0.9974697586
0.9975216218
0.9975717217
0.9976201476
0.9976669685
0.9977122549
0.9977560707
0.9977984971
0.9978395868
0.9978794064
0.9979180131
0.9979554681
0.9979918262
0.9980271303
0.9980614232
0.9980947491
0.9981271544
0.998158684
0.9981893708
0.9982192472
0.9982483463
0.9982767023
0.9983043519
0.9983313259
0.9983576469
0.9983833373
0.9984084201
0.9984329187
0.9984568576
0.9984802637
0.9985031524
0.9985255386
0.9985474372
0.9985688635
0.9985898336
0.9986103645
0.998630475
0.9986501773
0.9986694806
0.9986883944
0.9987069285
0.998725093
0.9987428988
0.9987603575
0.9987774825
0.9987942833
0.9988107661
0.9988269371
0.9988428028
0.9988583699
0.9988736458
0.9988886382
0.9989033558
0.9989178083
0.9989320052
0.998945951
0.9989596502
0.9989731074
0.9989863274
0.9989993152
0.9990120763
0.9990246163
0.9990369417
0.9990490592
0.9990609766
0.9990727001
0.999084233
0.9990955786
0.9991067404
0.9991177217
0.9991285259
0.9991391568
0.9991496181
0.9991599137
0.999170048
0.9991800256
0.9991898516
0.999199532
0.9992090694
0.9992184657
0.9992277228
0.9992368425
0.9992458268
0.9992546775
0.9992633966
0.9992719861
0.999280448
0.9992887845
0.999296998
0.9993050911
0.9993130667
0.9993209281
0.9993286794
0.9993363216
0.9993438557
0.9993512828
0.9993586039
0.9993658201
0.9993729323
0.9993799419
0.9993868499
0.9993936576
0.9994003664
0.9994069776
0.9994134931
0.9994199144
0.9994262438
0.9994324835
0.9994386364
0.9994447059
0.9994506932
0.9994565969
0.9994624174
0.9994681559
0.9994738134
0.9994793909
0.9994848895
0.9994903104
0.9994956547
0.9995009234
0.9995061178
0.999511239
0.9995162882
0.9995212665
0.9995261753
0.9995310157
0.999535789
0.9995404966
0.99954514
0.9995497204
0.9995542398
0.9995586996
0.9995631019
0.999567449
0.9995717425
0.9995759836
0.9995801732
0.9995843124
0.9995884021
0.9995924433
0.9995964371
0.9996003845
0.9996042865
0.9996081441
0.9996119585
0.9996157306
0.9996194615
0.9996231522
0.9996268039
0.9996304175
0.9996339942
0.999637535
0.9996410411
0.9996445135
0.9996479533
0.9996513618
0.99965474
0.999658089
0.9996614102
0.9996647048
0.9996679739
0.9996712191
0.9996744416
0.9996776431
0.9996808252
0.9996839897
0.9996871378
0.9996902703
0.9996933881
0.9996964924
0.9996995842
0.9997026619
0.9997057314
0.9997087908
0.9997118407
0.9997148818
0.9997179148
0.9997209406
0.9997239597
0.9997269728
0.9997299806
0.9997329837
0.9997359826
0.999738978
0.9997419702
0.9997449599
0.9997479474
0.9997509333
0.9997539177
0.9997569013
0.9997598842
0.9997628668
0.9997658495
0.9997688324
0.9997718159
0.9997748003
0.9997777857
0.9997807726
0.9997837612
0.999786752
0.9997897452
0.9997927414
0.9997957409
0.9997987432
0.9998017482
0.9998047552
0.999807764
0.9998107739
0.9998137849
0.9998167972
0.9998198057
0.9998228131
0.9998258185
0.9998288215
0.9998318211
0.9998348167
0.9998378075
0.9998407925
0.9998437709
0.9998467419
0.9998497045
0.9998526578
0.9998556008
0.9998585326
0.9998614522
0.9998643585
0.9998672507
0.9998701276
0.9998729884
0.9998758319
0.9998786573
0.9998814636
0.9998842497
0.999887015
0.9998897584
0.9998924793
0.9998951768
0.9998978504
0.9999004993
0.9999031225
0.9999057187
0.9999082867
0.9999108254
0.9999133335
0.9999158101
0.9999182539
0.9999206639
0.999923039
0.9999253782
0.9999276805
0.999929945
0.9999321707
0.9999343567
0.9999365022
0.9999386064
0.9999406684
0.9999426876
0.9999446633
0.9999465949
0.9999484817
0.9999503231
0.9999521188
0.9999538683
0.9999555711
0.9999572269
0.9999588355
0.9999603965
0.9999619098
0.9999633753
0.9999647928
0.9999661624
0.9999674841
0.9999687579
0.9999699839
0.9999711625
0.9999722937
0.9999733779
0.9999744154
0.9999754066
0.999976352
0.9999772521
0.9999781073
0.9999789183
0.9999796857
0.9999804102
0.9999810926
0.9999817335
0.9999823339
0.9999828945
0.9999834163
0.9999839002
0.9999843471
0.9999847582
0.9999851344
0.9999854768
0.9999857865
0.9999860647
0.9999863125
0.9999865311
0.9999867217
0.9999868857
0.9999870242
0.9999871385
0.99998723
0.9999873
0.9999873497
0.9999873806
0.9999873941
0.9999873914
0.999987374
0.9999873433
0.9999873006
0.9999872475
0.9999871852
0.9999871152
0.9999870388
0.9999869576
0.9999868729
0.9999867861
0.9999866985
0.9999866116
0.9999865268
0.9999864453
0.9999863687
0.9999862981
0.999986235
0.9999861806
0.9999861362
0.9999861031
0.9999860826
0.9999860759
0.9999860841
0.9999861086
0.9999861503
0.9999862105
0.9999862901
0.9999863904
0.9999865121
0.9999866562
0.9999868231
0.9999870174
0.999987231
0.999987477
0.9999877499
0.9999880556
0.9999883922
0.9999887555
0.9999891467
0.9999895658
0.9999900126
0.9999904871
0.9999909887
0.9999915167
0.99999207
0.9999926474
0.999993247
0.9999938665
0.9999945031
0.9999951529
0.9999958116
0.9999964731
0.9999971302
0.9999977733
0.9999983899
0.9999989637
0.9999994728
0.9999998879
1
1
1
1
1
1
1
1
1
1
1
1
1
1
1
1
1
1
1
1
1
1
1
1
1
1
1
1
1
1
1
1
1
1
1
1
1
1
1
1
1
1
1
1
1
1
1
1
1
1
1
1
1
1
1
1
1
1
1
1
1
1
1
1
1
1
1
1
1
1
1
1
1
1
1
1
1
1
1
1
1
1
1
1
1
1
1
)
;

boundaryField
{
    inlet
    {
        type            fixedValue;
        value           uniform 0;
    }
    outlet
    {
        type            zeroGradient;
    }
    upperWall
    {
        type            empty;
    }
    lowerWall
    {
        type            empty;
    }
    frontAndBack
    {
        type            empty;
    }
}


// ************************************************************************* //
