/*--------------------------------*- C++ -*----------------------------------*\
  =========                 |
  \\      /  F ield         | OpenFOAM: The Open Source CFD Toolbox
   \\    /   O peration     | Website:  https://openfoam.org
    \\  /    A nd           | Version:  9
     \\/     M anipulation  |
\*---------------------------------------------------------------------------*/
FoamFile
{
    format      ascii;
    class       volScalarField;
    location    "0.019";
    object      Cp;
}
// * * * * * * * * * * * * * * * * * * * * * * * * * * * * * * * * * * * * * //

dimensions      [0 2 -2 -1 0 0 0];

internalField   nonuniform List<scalar> 
1000
(
1202.129326
1202.129326
1202.129326
1202.129326
1202.129326
1202.129326
1202.129326
1202.129326
1202.129326
1202.129326
1202.129326
1202.129326
1202.129326
1202.129326
1202.129326
1202.129326
1202.129326
1202.129326
1202.129326
1202.129326
1202.129326
1202.129326
1202.129326
1202.129326
1202.129326
1202.129326
1202.129326
1202.129326
1202.129326
1202.129326
1202.129326
1202.129326
1202.129326
1202.129326
1202.129326
1202.129326
1202.129326
1202.129326
1202.129326
1202.129326
1202.129326
1202.129326
1202.129326
1202.129326
1202.129326
1202.129326
1202.129326
1202.129326
1202.129326
1202.129326
1202.129326
1202.129326
1202.129326
1202.129326
1202.129326
1202.129326
1202.129326
1202.129326
1202.129326
1202.129326
1202.129326
1202.129326
1202.129326
1202.129326
1202.129326
1202.129326
1202.129326
1202.129326
1202.129326
1202.129326
1202.129326
1202.129326
1202.129326
1202.129326
1202.129326
1202.129326
1202.129326
1202.129326
1202.129326
1202.129326
1202.129326
1202.129326
1202.129326
1202.129326
1202.129326
1202.129326
1202.129326
1202.129326
1202.129326
1202.129326
1202.129326
1202.129326
1202.129326
1202.129326
1202.129326
1202.129326
1202.129326
1202.129326
1202.129326
1202.129326
1202.129326
1202.129326
1202.129326
1202.129326
1202.129326
1202.129326
1202.129326
1202.129326
1202.129326
1202.129326
1202.129326
1202.129326
1202.129326
1202.129326
1202.129326
1202.129326
1202.129326
1202.129326
1202.129326
1202.129326
1202.129326
1202.129326
1202.129326
1202.129326
1202.129326
1202.129326
1202.129326
1202.129326
1202.129326
1202.129326
1202.129326
1202.129326
1202.129326
1202.129326
1202.129326
1202.129326
1202.129326
1202.129326
1202.129326
1202.129326
1202.129326
1202.129326
1202.129326
1202.129326
1202.129326
1202.129326
1202.129326
1202.129326
1202.129326
1202.129326
1202.129326
1202.129326
1202.129326
1202.129326
1202.129326
1202.129326
1202.129326
1202.129326
1202.129326
1202.129326
1202.129326
1202.129326
1202.129326
1202.129326
1202.129326
1202.129326
1202.129326
1202.129326
1202.129326
1202.129326
1202.129326
1202.129326
1202.129326
1202.129326
1202.129326
1202.129326
1202.129326
1202.129326
1202.129326
1202.129326
1202.129326
1202.129326
1202.129326
1202.129326
1202.129326
1202.129326
1202.129326
1202.129326
1202.129326
1202.129326
1202.129326
1202.129326
1202.129326
1202.129326
1202.129326
1202.129326
1202.129326
1202.129326
1202.129326
1202.129326
1202.129326
1202.129326
1202.129326
1202.129326
1202.129326
1202.129326
1202.129326
1202.129326
1202.129326
1202.129326
1202.129326
1202.129326
1202.129326
1202.129326
1202.129326
1202.129326
1202.129326
1202.129326
1202.129326
1202.129326
1202.129326
1202.129326
1202.129326
1202.129326
1202.129326
1202.129326
1202.129326
1202.129326
1202.129326
1202.129326
1202.129326
1202.129326
1202.129326
1202.129326
1202.129326
1202.129326
1202.129326
1202.129326
1202.129326
1202.129326
1202.129326
1202.129326
1202.129326
1202.129326
1202.129326
1202.129326
1202.129326
1202.129326
1202.129326
1202.129326
1202.129326
1202.129326
1202.129326
1202.129326
1202.129326
1202.129326
1202.129326
1202.129326
1202.129326
1202.129326
1202.129326
1202.129326
1202.129326
1202.129326
1202.129326
1202.129326
1202.129326
1202.129326
1202.129326
1202.129326
1202.129326
1202.129326
1202.129326
1202.129326
1202.129326
1202.129326
1202.129326
1202.129326
1202.129326
1202.129326
1202.129326
1202.129326
1202.129326
1202.129326
1202.129326
1202.129326
1202.129326
1202.129326
1202.129326
1202.129326
1202.129326
1202.129326
1202.129326
1202.129326
1202.129326
1202.129326
1202.129326
1202.129326
1202.129326
1202.129326
1202.129326
1202.129326
1202.129326
1202.129326
1202.129326
1202.129326
1202.129326
1202.129326
1202.129326
1202.129326
1202.129326
1202.129326
1202.129326
1202.129326
1202.129326
1202.129326
1202.129326
1202.129326
1202.129326
1202.129326
1202.129326
1202.129326
1202.129326
1202.129326
1202.129326
1202.129326
1202.129326
1202.129326
1202.129326
1202.129326
1202.129326
1202.129326
1202.129326
1202.129326
1202.129326
1202.129326
1202.129326
1202.129326
1202.129326
1202.129326
1202.129326
1202.129326
1202.129326
1202.129326
1202.129326
1202.129326
1202.129326
1202.129326
1202.129326
1202.129326
1202.129326
1202.129326
1202.129326
1202.129326
1202.129326
1202.129326
1202.129326
1202.129326
1202.129326
1202.129326
1202.129326
1202.129326
1202.129326
1202.129326
1202.129326
1202.129326
1202.129326
1202.129326
1202.129326
1202.129326
1202.129326
1202.129326
1202.129326
1202.129326
1202.129326
1202.129326
1202.129326
1202.129326
1202.129326
1202.129326
1202.129326
1202.129326
1202.129326
1202.129326
1202.129326
1202.129326
1202.129326
1202.129326
1202.129326
1202.129326
1202.129326
1202.129326
1202.129326
1202.129326
1202.129326
1202.129326
1202.129326
1202.129326
1202.129326
1202.129326
1202.129326
1202.129326
1202.129326
1202.129326
1202.129326
1202.129326
1202.129326
1202.129326
1202.129326
1202.129326
1202.129326
1202.129325
1202.129325
1202.129325
1202.129324
1202.129323
1202.129323
1202.129321
1202.12932
1202.129317
1202.129314
1202.12931
1202.129304
1202.129296
1202.129285
1202.129271
1202.129252
1202.129225
1202.129189
1202.12914
1202.129074
1202.128985
1202.128864
1202.128699
1202.128476
1202.128174
1202.127765
1202.12721
1202.126458
1202.125439
1202.124057
1202.122185
1202.119647
1202.116208
1202.111546
1202.105227
1202.096664
1202.085058
1202.069328
1202.048009
1202.019117
1201.979962
1201.9269
1201.854992
1201.757548
1201.625507
1201.446593
1201.204188
1200.875801
1200.431028
1199.828836
1199.013941
1197.912226
1196.425055
1194.422918
1191.739931
1188.173831
1183.503237
1177.550286
1170.346088
1162.479991
1155.574964
1152.018172
1157.135091
1177.96447
1214.978277
1257.900418
1293.886658
1323.529564
1347.769683
1366.560705
1380.581447
1390.866663
1398.487941
1404.248284
1408.670473
1412.118413
1414.852305
1417.056029
1418.857152
1420.346653
1421.591265
1422.638995
1423.530054
1424.290213
1424.945982
1425.513342
1426.008682
1426.443299
1426.82591
1427.164947
1427.466944
1427.737162
1427.980032
1428.199297
1428.398124
1428.579177
1428.744699
1428.896491
1429.035976
1429.164787
1429.284099
1429.394861
1429.497575
1429.593403
1429.682894
1429.766261
1429.844436
1429.917511
1429.986012
1430.050254
1430.110417
1430.16694
1430.219879
1430.269644
1430.316298
1430.36012
1430.401291
1430.439883
1430.47629
1430.510336
1430.542486
1430.572741
1430.601207
1430.628156
1430.653522
1430.677527
1430.700341
1430.721902
1430.74242
1430.76202
1430.78067
1430.798473
1430.815575
1430.83202
1430.84774
1430.862925
1430.877616
1430.891816
1430.90551
1430.918815
1430.931757
1430.944348
1430.956521
1430.968391
1430.979971
1430.991272
1431.002265
1431.012951
1431.023387
1431.033576
1431.043525
1431.053216
1431.062618
1431.071795
1431.080751
1431.089489
1431.098014
1431.106302
1431.114358
1431.122217
1431.129884
1431.137362
1431.144658
1431.151778
1431.158679
1431.165419
1431.172003
1431.178439
1431.184731
1431.190888
1431.196917
1431.202788
1431.208535
1431.214175
1431.219713
1431.225155
1431.230507
1431.235774
1431.240962
1431.246057
1431.251067
1431.256014
1431.2609
1431.265729
1431.270505
1431.275229
1431.279905
1431.284535
1431.289118
1431.29364
1431.298124
1431.30257
1431.30698
1431.311354
1431.315693
1431.319997
1431.324268
1431.328505
1431.33271
1431.336874
1431.340995
1431.345086
1431.349146
1431.353175
1431.357173
1431.361139
1431.365074
1431.368978
1431.37285
1431.376691
1431.380502
1431.384283
1431.388019
1431.391724
1431.395399
1431.399046
1431.402662
1431.406249
1431.409805
1431.413332
1431.416829
1431.420296
1431.423733
1431.42714
1431.430517
1431.433865
1431.437184
1431.440461
1431.44371
1431.446929
1431.450119
1431.45328
1431.456411
1431.459511
1431.462581
1431.46562
1431.468628
1431.471605
1431.47455
1431.477462
1431.480343
1431.48319
1431.486005
1431.488787
1431.491536
1431.494244
1431.496917
1431.499558
1431.502165
1431.504738
1431.507278
1431.509783
1431.512253
1431.514689
1431.517089
1431.519454
1431.521784
1431.524078
1431.526335
1431.528557
1431.530743
1431.532892
1431.535005
1431.537082
1431.539123
1431.541128
1431.543096
1431.54503
1431.546925
1431.548781
1431.550602
1431.552388
1431.55414
1431.555856
1431.557539
1431.559187
1431.560801
1431.562381
1431.563927
1431.56544
1431.56692
1431.568367
1431.569782
1431.571164
1431.572514
1431.573833
1431.575121
1431.576379
1431.577606
1431.578803
1431.579972
1431.581112
1431.582223
1431.583307
1431.584365
1431.585396
1431.586401
1431.587382
1431.588339
1431.589272
1431.590179
1431.591064
1431.591928
1431.592772
1431.593597
1431.594403
1431.595192
1431.595963
1431.596718
1431.597458
1431.598184
1431.598896
1431.599595
1431.600283
1431.60096
1431.601627
1431.602285
1431.602935
1431.603579
1431.604215
1431.604847
1431.605475
1431.606099
1431.606722
1431.607342
1431.607963
1431.608585
1431.609208
1431.609833
1431.610463
1431.611097
1431.611737
1431.612384
1431.613038
1431.613701
1431.614373
1431.615055
1431.615745
1431.616449
1431.617165
1431.617895
1431.618641
1431.619402
1431.620179
1431.620973
1431.621785
1431.622616
1431.623465
1431.624334
1431.625223
1431.626133
1431.627064
1431.628016
1431.62899
1431.629987
1431.631007
1431.632049
1431.633115
1431.634205
1431.635319
1431.636457
1431.637619
1431.638805
1431.640016
1431.641251
1431.642511
1431.643796
1431.645105
1431.646439
1431.647796
1431.649179
1431.650585
1431.652015
1431.653476
1431.65496
1431.656466
1431.657996
1431.659547
1431.661119
1431.662713
1431.664327
1431.66596
1431.667613
1431.669284
1431.670972
1431.672677
1431.674399
1431.676136
1431.677887
1431.679652
1431.68143
1431.683219
1431.685019
1431.68683
1431.688649
1431.690477
1431.692311
1431.694152
1431.695998
1431.697847
1431.6997
1431.701554
1431.703409
1431.705265
1431.707118
1431.70897
1431.710818
1431.712661
1431.714499
1431.71633
1431.718153
1431.719967
1431.721772
1431.723566
1431.725347
1431.727116
1431.72887
1431.73061
1431.732333
1431.73404
1431.735728
1431.737398
1431.739047
1431.740676
1431.742284
1431.743868
1431.74543
1431.746967
1431.74848
1431.749967
1431.751427
1431.752861
1431.754266
1431.755644
1431.756992
1431.758311
1431.759599
1431.760857
1431.762084
1431.76328
1431.764443
1431.765574
1431.766673
1431.767738
1431.768771
1431.769769
1431.770735
1431.771666
1431.772563
1431.773427
1431.774256
1431.775051
1431.775812
1431.776539
1431.777232
1431.777891
1431.778516
1431.779108
1431.779667
1431.780192
1431.780685
1431.781145
1431.781574
1431.78197
1431.782336
1431.78267
1431.782975
1431.783249
1431.783494
1431.783711
1431.783899
1431.784059
1431.784193
1431.7843
1431.784382
1431.784439
1431.784471
1431.78448
1431.784466
1431.78443
1431.784375
1431.784298
1431.784202
1431.784086
1431.783952
1431.7838
1431.783631
1431.783446
1431.783244
1431.783027
1431.782796
1431.782549
1431.782289
1431.782014
1431.781725
1431.781422
1431.781103
1431.780768
1431.780416
1431.780043
1431.779648
1431.779224
1431.778715
1431.77817
1431.777619
1431.777065
1431.776507
1431.775947
1431.775385
1431.774824
1431.774263
1431.773705
1431.773149
1431.772598
1431.772052
1431.771513
1431.770982
1431.77046
1431.769948
1431.769447
1431.768959
1431.768484
1431.768025
1431.767582
1431.767156
1431.766748
1431.766361
1431.765995
1431.765651
1431.76533
1431.765035
1431.764765
1431.764523
1431.76431
1431.764126
1431.763974
1431.763854
1431.763768
1431.763717
1431.763703
1431.763724
1431.763787
1431.763892
1431.764038
1431.764228
1431.764461
1431.76474
1431.765066
1431.765441
1431.765865
1431.766339
1431.766866
1431.767446
1431.768081
1431.768772
1431.769521
1431.770328
1431.771194
1431.772122
1431.773111
1431.774163
1431.77528
1431.776461
1431.777708
1431.779021
1431.780401
1431.781848
1431.783362
1431.784942
1431.786588
1431.788298
1431.790071
1431.791904
1431.793793
1431.795734
1431.797721
1431.799746
1431.801799
1431.803869
1431.80594
1431.807995
1431.810009
1431.811955
1431.813798
1431.815497
1431.816999
1431.818243
1431.819152
1431.819637
)
;

boundaryField
{
    inlet
    {
        type            calculated;
        value           uniform 1202.129326;
    }
    outlet
    {
        type            calculated;
        value           uniform 1431.819637;
    }
    upperWall
    {
        type            empty;
    }
    lowerWall
    {
        type            empty;
    }
    frontAndBack
    {
        type            empty;
    }
}


// ************************************************************************* //
