/*--------------------------------*- C++ -*----------------------------------*\
  =========                 |
  \\      /  F ield         | OpenFOAM: The Open Source CFD Toolbox
   \\    /   O peration     | Website:  https://openfoam.org
    \\  /    A nd           | Version:  9
     \\/     M anipulation  |
\*---------------------------------------------------------------------------*/
FoamFile
{
    format      ascii;
    class       volScalarField;
    location    "0.019";
    object      CVar;
}
// * * * * * * * * * * * * * * * * * * * * * * * * * * * * * * * * * * * * * //

dimensions      [0 0 0 0 0 0 0];

internalField   nonuniform List<scalar> 
1000
(
1.466761468e-63
5.10588113e-63
8.600995481e-63
1.160147586e-62
1.416471497e-62
1.641359094e-62
1.850554369e-62
2.059105446e-62
2.320531551e-62
2.555037112e-62
2.757651641e-62
2.919487198e-62
3.069804296e-62
3.146735439e-62
3.070093396e-62
2.929249159e-62
2.819871277e-62
2.803012729e-62
2.806666681e-62
2.836172717e-62
2.946081707e-62
3.10864815e-62
3.31310901e-62
3.557944111e-62
3.840985567e-62
4.150367596e-62
4.467674046e-62
4.787575201e-62
5.113825361e-62
5.429686978e-62
5.696734413e-62
5.836195671e-62
5.823076478e-62
5.810499892e-62
5.795315099e-62
5.72565259e-62
5.726391088e-62
5.726364262e-62
5.780773017e-62
5.987575829e-62
6.242827906e-62
6.244373776e-62
6.139749076e-62
6.08329191e-62
6.080420815e-62
6.083732257e-62
6.131841009e-62
6.342755617e-62
6.961103574e-62
8.640947497e-62
1.326273667e-61
2.626269949e-61
6.21502617e-61
1.534226628e-60
3.565966577e-60
6.193465704e-60
8.77915388e-60
1.104250055e-59
1.305601229e-59
1.483558006e-59
1.645935057e-59
1.809192784e-59
2.000582426e-59
2.195393469e-59
2.377049711e-59
2.542021149e-59
2.698058892e-59
2.848518843e-59
2.996893539e-59
3.148774464e-59
3.315725078e-59
3.509846079e-59
3.767821564e-59
4.035419338e-59
4.304963101e-59
4.557933856e-59
4.838431589e-59
5.138456201e-59
5.203955104e-59
5.086161972e-59
4.964040227e-59
4.949563308e-59
5.045301027e-59
5.320109555e-59
5.660870239e-59
5.985491358e-59
6.26999266e-59
6.543774219e-59
6.659226146e-59
6.578389076e-59
6.457216904e-59
6.427220161e-59
6.426209754e-59
6.423318026e-59
6.412375559e-59
6.325037623e-59
6.227187846e-59
6.169060627e-59
6.108698077e-59
6.00709875e-59
5.919739356e-59
5.800809622e-59
5.681292464e-59
5.596749554e-59
5.53352811e-59
5.504727748e-59
5.435141041e-59
5.411533141e-59
5.422694331e-59
5.485707022e-59
5.591099007e-59
5.81590475e-59
6.353178524e-59
7.749427797e-59
1.141475385e-58
2.096044314e-58
4.536375453e-58
1.052617567e-57
2.447608524e-57
4.158589466e-57
5.922226667e-57
7.596652236e-57
9.215494972e-57
1.072311613e-56
1.214383721e-56
1.356725895e-56
1.526346794e-56
1.69095463e-56
1.848192853e-56
1.994798585e-56
2.135042938e-56
2.265822979e-56
2.389335973e-56
2.509323459e-56
2.635457762e-56
2.773621902e-56
2.952972191e-56
3.144030907e-56
3.361138208e-56
3.575245435e-56
3.796398888e-56
4.001786838e-56
4.081264744e-56
4.131565693e-56
4.195133454e-56
4.347916515e-56
4.624603354e-56
4.943438878e-56
5.29198005e-56
5.566252238e-56
5.799475004e-56
6.06791944e-56
6.409327129e-56
6.36349909e-56
6.339436182e-56
6.360028823e-56
6.388531145e-56
6.445745414e-56
6.289210436e-56
6.062816367e-56
5.84850852e-56
5.649642747e-56
5.488125778e-56
5.374079401e-56
5.31175951e-56
5.262663674e-56
5.190724131e-56
5.2148804e-56
5.198480348e-56
5.287018093e-56
5.433644432e-56
5.40558755e-56
5.320446702e-56
5.231539924e-56
5.150959612e-56
5.196075765e-56
5.599565333e-56
6.949606511e-56
1.048458683e-55
1.911701582e-55
3.942349997e-55
8.524939559e-55
1.919715783e-54
3.217042429e-54
4.680871984e-54
6.200996772e-54
7.76602438e-54
9.29261194e-54
1.075613443e-53
1.213866124e-53
1.345443905e-53
1.46704579e-53
1.579436444e-53
1.684315952e-53
1.785063094e-53
1.884647224e-53
1.986385871e-53
2.094980266e-53
2.219752033e-53
2.37486733e-53
2.59777377e-53
2.857805504e-53
3.1628663e-53
3.478658215e-53
3.75848524e-53
3.928119764e-53
3.867225736e-53
3.64132013e-53
3.355408462e-53
3.048081332e-53
2.714571983e-53
2.305060494e-53
1.913379916e-53
1.762767965e-53
1.768761108e-53
1.887208482e-53
2.084695176e-53
2.337997955e-53
2.675778491e-53
3.033104172e-53
3.253550213e-53
3.200017413e-53
3.03607962e-53
2.814348746e-53
2.587582397e-53
2.338582157e-53
2.031299796e-53
1.693664675e-53
1.425697872e-53
1.183775659e-53
9.762739053e-54
8.039513363e-54
6.519008344e-54
6.469153811e-54
6.548124702e-54
8.493085266e-54
1.78834996e-53
7.883841103e-54
1.264578258e-54
3.921288356e-55
2.646286894e-55
2.493014121e-55
2.507744502e-55
2.355900137e-55
6.9394282e-56
3.683712754e-55
1.962623165e-52
2.406671533e-52
2.721766029e-52
2.790097543e-52
4.32024456e-52
4.666336415e-52
4.910753493e-52
4.962511025e-52
5.415194832e-52
5.517236987e-52
5.588605369e-52
5.603630911e-52
5.662132155e-52
5.675168901e-52
5.684701528e-52
5.68492801e-52
5.738324866e-52
5.794325539e-52
8.727614767e-52
1.440468028e-51
1.823765486e-51
2.143299801e-51
5.197911136e-51
1.303188012e-51
4.876180142e-52
3.636101699e-52
3.48722741e-52
3.46474993e-52
3.481780219e-52
3.393165623e-52
2.443004086e-52
4.15489243e-52
1.147447011e-49
1.406565868e-49
1.590405458e-49
1.630335258e-49
2.579992975e-49
2.794789786e-49
2.946554957e-49
2.978674603e-49
3.256692816e-49
3.319348367e-49
3.363159291e-49
3.372379837e-49
3.408912995e-49
3.417068067e-49
3.422423083e-49
3.424206187e-49
3.944814282e-49
4.064975644e-49
6.250055694e-49
6.785197034e-49
7.563950467e-49
1.45433004e-48
4.175049265e-48
9.9373342e-49
3.588363194e-49
2.628258281e-49
2.516396203e-49
2.499957862e-49
2.514516889e-49
2.450078872e-49
1.754057332e-49
3.008742842e-49
8.399212678e-47
1.029580047e-46
1.164134505e-46
1.193357268e-46
1.888101936e-46
2.045223834e-46
2.156235546e-46
2.179725301e-46
2.381622999e-46
2.427116383e-46
2.458921173e-46
2.465613981e-46
2.492105815e-46
2.498018585e-46
2.501901422e-46
2.503192518e-46
2.879974768e-46
2.966945523e-46
4.559991561e-46
4.950559628e-46
5.526923661e-46
1.081653827e-45
3.319057731e-45
7.626156642e-46
2.66823081e-46
1.919560514e-46
1.831937304e-46
1.819221614e-46
1.829325296e-46
1.782677304e-46
1.279734891e-46
2.186016098e-46
6.063919845e-44
7.433021357e-44
8.404509546e-44
8.615046578e-44
1.337274016e-43
1.444846533e-43
1.520805879e-43
1.536906476e-43
1.692653832e-43
1.72776815e-43
1.752380615e-43
1.757555379e-43
1.777935153e-43
1.782456772e-43
1.783276572e-43
1.787142545e-43
2.503492714e-43
2.706473356e-43
4.253864399e-43
7.076362528e-43
9.72005737e-43
1.754613352e-42
9.452843035e-42
1.60407779e-42
4.094807918e-43
2.350499653e-43
2.199032751e-43
2.179027873e-43
2.224712221e-43
2.091613659e-43
1.029628167e-43
4.899036871e-43
1.906250999e-40
2.343354235e-40
4.023843983e-40
4.845616778e-40
4.680894479e-40
8.599291171e-40
1.275683771e-39
4.876096864e-40
2.672395778e-40
2.37141152e-40
2.386392744e-40
2.389119567e-40
3.48658379e-40
3.616331135e-40
1.942816398e-40
5.613697508e-40
6.662498762e-38
1.076139658e-37
1.023426226e-37
1.517728588e-37
2.419799741e-37
3.531622585e-37
4.76671456e-37
2.582040616e-37
1.825282825e-37
1.124522003e-37
1.32824329e-37
1.529254869e-37
4.818894839e-37
7.099489563e-36
8.91696582e-35
5.41301972e-34
2.267234141e-33
7.721430033e-33
2.397773138e-32
7.136877519e-32
2.089350218e-31
6.08358994e-31
1.769134319e-30
5.145258567e-30
1.497093134e-29
4.358025941e-29
1.268339448e-28
3.68958456e-28
1.072875552e-27
3.11896612e-27
9.06552814e-27
2.634510708e-26
7.65454326e-26
2.223487929e-25
6.457032673e-25
1.874595121e-24
5.44079e-24
1.578746081e-23
4.580232487e-23
1.328708913e-22
3.854721757e-22
1.118508839e-21
3.246648564e-21
9.428548423e-21
2.739827748e-20
7.967267447e-20
2.318563938e-19
6.752117933e-19
1.967565447e-18
5.736054102e-18
1.6726006e-17
4.876928736e-17
1.42149382e-16
4.140534128e-16
1.204920134e-15
3.502244967e-15
1.016581224e-14
2.946423923e-14
8.526818401e-14
2.463928057e-13
7.109760861e-13
2.048924506e-12
5.898137073e-12
1.696315404e-11
4.875210752e-11
1.400467971e-10
4.022080693e-10
1.155159784e-09
3.3188032e-09
9.541872106e-09
2.746677677e-08
6.619350024e-08
1.461868624e-07
3.069353752e-07
6.181496199e-07
1.188166543e-06
2.179855859e-06
3.797643017e-06
6.429598088e-06
1.133654238e-05
2.313300588e-05
5.543198962e-05
0.000139116511
0.0003117707872
0.0004888468547
0.0004617045483
0.0004263992102
0.0003908724945
0.0003202822002
0.000209045435
0.0001127075083
5.199523557e-05
1.568536348e-05
0
0
0
0
0
0
0
0
0
0
0
0
0
0
4.469728907e-09
2.965503128e-08
4.18882354e-08
4.721587732e-08
4.99315541e-08
5.144309256e-08
5.228268229e-08
5.274287079e-08
5.300145112e-08
5.32003734e-08
5.330757534e-08
5.288896271e-08
5.165291462e-08
5.055887633e-08
4.992403318e-08
4.941260723e-08
4.835124449e-08
4.768334754e-08
4.726062758e-08
4.646380923e-08
4.60263052e-08
4.542579954e-08
4.491702938e-08
4.444077809e-08
4.385475808e-08
4.336598285e-08
4.280142217e-08
4.236532145e-08
4.191573128e-08
4.152423103e-08
4.122307261e-08
4.088290408e-08
4.072552367e-08
4.037202809e-08
4.014563444e-08
3.99331851e-08
3.966568802e-08
3.949127891e-08
3.920655213e-08
3.891394193e-08
3.870661573e-08
3.84279839e-08
3.817350591e-08
3.800655006e-08
3.782273434e-08
3.763034956e-08
3.751416684e-08
3.744827576e-08
3.731420814e-08
3.721843433e-08
3.718134052e-08
3.714162037e-08
3.703577858e-08
3.694458053e-08
3.689050287e-08
3.683388854e-08
3.668215361e-08
3.651902219e-08
3.638576884e-08
3.628320339e-08
3.617240671e-08
3.604024503e-08
3.592776483e-08
3.58511345e-08
3.580820456e-08
3.5775847e-08
3.573056332e-08
3.570074785e-08
3.569837239e-08
3.572087793e-08
3.575872849e-08
3.577468606e-08
3.576279383e-08
3.574933365e-08
3.574898797e-08
3.576353465e-08
3.578901226e-08
3.580324424e-08
3.576577377e-08
3.570536604e-08
3.564505562e-08
3.559511503e-08
3.555990065e-08
3.553904897e-08
3.552675465e-08
3.550849084e-08
3.548964324e-08
3.547870739e-08
3.548013331e-08
3.549493138e-08
3.552508396e-08
3.556744637e-08
3.561655724e-08
3.566109612e-08
3.570028562e-08
3.574204365e-08
3.579092014e-08
3.584931227e-08
3.591807409e-08
3.599665183e-08
3.608271777e-08
3.617108428e-08
3.625138355e-08
3.631315789e-08
3.636735928e-08
3.642072466e-08
3.64773478e-08
3.653962372e-08
3.660878512e-08
3.668514411e-08
3.676807148e-08
3.685566271e-08
3.694393119e-08
3.702519149e-08
3.709705434e-08
3.716550505e-08
3.723430413e-08
3.730572064e-08
3.738094819e-08
3.746027546e-08
3.754302146e-08
3.762717797e-08
3.770860787e-08
3.77794978e-08
3.78255069e-08
3.782108161e-08
3.772836043e-08
3.755778025e-08
3.734253722e-08
3.709964672e-08
3.684058716e-08
3.657307214e-08
3.630224557e-08
3.603148054e-08
3.576290009e-08
3.549769231e-08
3.523625498e-08
3.497816857e-08
3.472195194e-08
3.4464488e-08
3.419989633e-08
3.391743563e-08
3.362504946e-08
3.332819998e-08
3.303057109e-08
3.273463032e-08
3.244201306e-08
3.215378484e-08
3.187062024e-08
3.159292372e-08
3.132091018e-08
3.10546559e-08
3.079412629e-08
3.053918186e-08
3.028955945e-08
3.004481778e-08
2.980422563e-08
2.956655027e-08
2.932966893e-08
2.908986072e-08
2.884853509e-08
2.860772566e-08
2.836879178e-08
2.813263088e-08
2.789982444e-08
2.767073765e-08
2.744558808e-08
2.722449237e-08
2.700749847e-08
2.679460728e-08
2.658578765e-08
2.638098599e-08
2.618013256e-08
2.598314441e-08
2.57899259e-08
2.560036534e-08
2.541432703e-08
2.52316346e-08
2.505204015e-08
2.487516701e-08
2.470040555e-08
2.452672273e-08
2.435231542e-08
2.417616287e-08
2.399970162e-08
2.382389728e-08
2.364939229e-08
2.347660716e-08
2.330581029e-08
2.313716561e-08
2.297076569e-08
2.280665414e-08
2.264484129e-08
2.248531463e-08
2.232804635e-08
2.217299813e-08
2.202012477e-08
2.186937637e-08
2.172070003e-08
2.157404078e-08
2.142934241e-08
2.128654764e-08
2.114559835e-08
2.100643525e-08
2.086899735e-08
2.073322049e-08
2.059903506e-08
2.04663614e-08
2.033510194e-08
2.02051266e-08
2.007624686e-08
1.994816847e-08
1.982040615e-08
1.969212882e-08
1.956187887e-08
1.943043111e-08
1.929844583e-08
1.91663641e-08
1.903447641e-08
1.890296934e-08
1.877196118e-08
1.864151063e-08
1.851166232e-08
1.83824363e-08
1.825383627e-08
1.812585518e-08
1.799847912e-08
1.787168998e-08
1.774546722e-08
1.761978916e-08
1.74946338e-08
1.736997938e-08
1.724580477e-08
1.712208974e-08
1.699881506e-08
1.68759626e-08
1.675351528e-08
1.663145705e-08
1.650977265e-08
1.63884473e-08
1.626746613e-08
1.614681322e-08
1.60264699e-08
1.590641198e-08
1.578660463e-08
1.566699379e-08
1.554749071e-08
1.542794485e-08
1.530809571e-08
1.518748769e-08
1.506531846e-08
1.494131096e-08
1.481612425e-08
1.469021189e-08
1.456388866e-08
1.443737649e-08
1.431083443e-08
1.418437199e-08
1.405809259e-08
1.393207155e-08
1.380635648e-08
1.368098983e-08
1.355601058e-08
1.343145573e-08
1.330736099e-08
1.318376161e-08
1.306069257e-08
1.293818897e-08
1.281628605e-08
1.26950194e-08
1.257442475e-08
1.245453816e-08
1.233539568e-08
1.221703344e-08
1.209948729e-08
1.198279267e-08
1.186698405e-08
1.175209455e-08
1.163815479e-08
1.152519155e-08
1.141322502e-08
1.130226469e-08
1.119230174e-08
1.108329642e-08
1.097515576e-08
1.086769528e-08
1.076057206e-08
1.065328693e-08
1.05463364e-08
1.04400688e-08
1.033473211e-08
1.023050648e-08
1.012752584e-08
1.002589276e-08
9.925688081e-09
9.826977734e-09
9.729817007e-09
9.634253665e-09
9.540329805e-09
9.448083286e-09
9.357548493e-09
9.268757019e-09
9.181737938e-09
9.096518123e-09
9.013122325e-09
8.931573325e-09
8.851891932e-09
8.774097052e-09
8.69820566e-09
8.624232831e-09
8.552191714e-09
8.482093537e-09
8.413947594e-09
8.347761233e-09
8.283539856e-09
8.221286906e-09
8.161003883e-09
8.10269031e-09
8.046343772e-09
7.991959885e-09
7.939532354e-09
7.889052907e-09
7.840511388e-09
7.793895702e-09
7.749191908e-09
7.706384142e-09
7.665454741e-09
7.626384175e-09
7.589151175e-09
7.553732635e-09
7.520103773e-09
7.488238049e-09
7.458107325e-09
7.429681748e-09
7.402929943e-09
7.377818918e-09
7.354314252e-09
7.332379962e-09
7.311978724e-09
7.293071767e-09
7.275619086e-09
7.259579295e-09
7.244909877e-09
7.231567068e-09
7.219506101e-09
7.208681057e-09
7.199045162e-09
7.190550698e-09
7.18314933e-09
7.176792058e-09
7.171429698e-09
7.167013051e-09
7.163493611e-09
7.160824017e-09
7.158959245e-09
7.157858175e-09
7.157488901e-09
7.157622031e-09
7.15817815e-09
7.159262807e-09
7.160833161e-09
7.162825026e-09
7.165176388e-09
7.167826892e-09
7.170717717e-09
7.173791028e-09
7.176989973e-09
7.180258331e-09
7.183540627e-09
7.186781877e-09
7.189927838e-09
7.192924893e-09
7.195720386e-09
7.198262622e-09
7.200501413e-09
7.20238847e-09
7.203878671e-09
7.204932328e-09
7.205522227e-09
7.20547257e-09
7.204699458e-09
7.203247001e-09
7.201131976e-09
7.198295467e-09
7.194685506e-09
7.190254555e-09
7.184958235e-09
7.178754357e-09
7.171602798e-09
7.163465003e-09
7.15429158e-09
7.144023452e-09
7.132627382e-09
7.120063735e-09
7.106351953e-09
7.091501543e-09
7.075514332e-09
7.058388868e-09
7.040120726e-09
7.020699892e-09
7.000104165e-09
6.978285599e-09
6.955144889e-09
6.930483847e-09
6.903918532e-09
6.874720966e-09
6.841531768e-09
6.801839055e-09
6.751034675e-09
6.680706065e-09
6.575546259e-09
6.407767009e-09
6.127000679e-09
5.642054207e-09
4.787947171e-09
3.266377034e-09
2.227767646e-09
1.518875702e-09
1.035094146e-09
7.050095697e-10
4.798634403e-10
3.26360587e-10
2.217621247e-10
1.505370908e-10
1.020773971e-10
6.913805789e-11
4.677212047e-11
3.160310032e-11
2.132775656e-11
1.4376157e-11
9.679216662e-12
6.509718609e-12
4.37360474e-12
2.935670645e-12
1.96881e-12
1.31937663e-12
8.835730164e-13
5.913766301e-13
3.9561391e-13
2.645451049e-13
1.768400756e-13
1.181797231e-13
7.89607766e-14
5.274814089e-14
3.523284555e-14
2.353136872e-14
1.571507694e-14
1.049455013e-14
7.008011773e-15
4.679647204e-15
3.124788231e-15
2.086497007e-15
1.393169877e-15
9.302038783e-16
6.210663964e-16
4.146497222e-16
2.768251937e-16
1.848025826e-16
1.233632842e-16
8.234487552e-17
5.496134957e-17
3.668139553e-17
2.447933352e-17
1.633489578e-17
1.08991868e-17
7.271614135e-18
4.850927242e-18
3.235744716e-18
2.158130973e-18
1.439242753e-18
9.597139754e-19
6.398822478e-19
4.265872805e-19
2.843574597e-19
1.89526386e-19
1.263056243e-19
8.416343085e-20
5.607533335e-20
3.735666479e-20
2.488355426e-20
1.657315656e-20
1.103690111e-20
7.349179602e-21
4.893067767e-21
3.257430744e-21
2.168312334e-21
1.443185961e-21
9.604568043e-22
6.391307876e-22
4.252648266e-22
2.82936214e-22
1.88225732e-22
1.252084981e-22
8.328350058e-23
5.539472935e-23
3.684672882e-23
2.451602671e-23
1.632664309e-23
1.090182976e-23
7.33405162e-24
5.035145808e-24
3.642714301e-24
2.969162845e-24
)
;

boundaryField
{
    inlet
    {
        type            calculated;
        value           uniform 0;
    }
    outlet
    {
        type            calculated;
        value           uniform 2.969162846e-24;
    }
    upperWall
    {
        type            empty;
    }
    lowerWall
    {
        type            empty;
    }
    frontAndBack
    {
        type            empty;
    }
}


// ************************************************************************* //
