/*--------------------------------*- C++ -*----------------------------------*\
  =========                 |
  \\      /  F ield         | OpenFOAM: The Open Source CFD Toolbox
   \\    /   O peration     | Website:  https://openfoam.org
    \\  /    A nd           | Version:  9
     \\/     M anipulation  |
\*---------------------------------------------------------------------------*/
FoamFile
{
    format      ascii;
    class       volScalarField;
    location    "0.019";
    object      D;
}
// * * * * * * * * * * * * * * * * * * * * * * * * * * * * * * * * * * * * * //

dimensions      [1 -1 -1 0 0 0 0];

internalField   nonuniform List<scalar> 
1000
(
3.577614126e-05
3.577614126e-05
3.577614126e-05
3.577614126e-05
3.577614126e-05
3.577614126e-05
3.577614126e-05
3.577614126e-05
3.577614126e-05
3.577614126e-05
3.577614126e-05
3.577614126e-05
3.577614126e-05
3.577614126e-05
3.577614126e-05
3.577614126e-05
3.577614126e-05
3.577614126e-05
3.577614126e-05
3.577614126e-05
3.577614126e-05
3.577614126e-05
3.577614126e-05
3.577614126e-05
3.577614126e-05
3.577614126e-05
3.577614126e-05
3.577614126e-05
3.577614126e-05
3.577614126e-05
3.577614126e-05
3.577614126e-05
3.577614126e-05
3.577614126e-05
3.577614126e-05
3.577614126e-05
3.577614126e-05
3.577614126e-05
3.577614126e-05
3.577614126e-05
3.577614126e-05
3.577614126e-05
3.577614126e-05
3.577614126e-05
3.577614126e-05
3.577614126e-05
3.577614126e-05
3.577614126e-05
3.577614126e-05
3.577614126e-05
3.577614126e-05
3.577614126e-05
3.577614126e-05
3.577614126e-05
3.577614126e-05
3.577614126e-05
3.577614126e-05
3.577614126e-05
3.577614126e-05
3.577614126e-05
3.577614126e-05
3.577614126e-05
3.577614126e-05
3.577614126e-05
3.577614126e-05
3.577614126e-05
3.577614126e-05
3.577614126e-05
3.577614126e-05
3.577614126e-05
3.577614126e-05
3.577614126e-05
3.577614126e-05
3.577614126e-05
3.577614126e-05
3.577614126e-05
3.577614126e-05
3.577614126e-05
3.577614126e-05
3.577614126e-05
3.577614126e-05
3.577614126e-05
3.577614126e-05
3.577614126e-05
3.577614126e-05
3.577614126e-05
3.577614126e-05
3.577614126e-05
3.577614126e-05
3.577614126e-05
3.577614126e-05
3.577614126e-05
3.577614126e-05
3.577614126e-05
3.577614126e-05
3.577614126e-05
3.577614126e-05
3.577614126e-05
3.577614126e-05
3.577614126e-05
3.577614126e-05
3.577614126e-05
3.577614126e-05
3.577614126e-05
3.577614126e-05
3.577614126e-05
3.577614126e-05
3.577614126e-05
3.577614126e-05
3.577614126e-05
3.577614126e-05
3.577614126e-05
3.577614126e-05
3.577614126e-05
3.577614126e-05
3.577614126e-05
3.577614126e-05
3.577614126e-05
3.577614126e-05
3.577614126e-05
3.577614126e-05
3.577614126e-05
3.577614126e-05
3.577614126e-05
3.577614126e-05
3.577614126e-05
3.577614126e-05
3.577614126e-05
3.577614126e-05
3.577614126e-05
3.577614126e-05
3.577614126e-05
3.577614126e-05
3.577614126e-05
3.577614126e-05
3.577614126e-05
3.577614126e-05
3.577614126e-05
3.577614126e-05
3.577614126e-05
3.577614126e-05
3.577614126e-05
3.577614126e-05
3.577614126e-05
3.577614126e-05
3.577614126e-05
3.577614126e-05
3.577614126e-05
3.577614126e-05
3.577614126e-05
3.577614126e-05
3.577614126e-05
3.577614126e-05
3.577614126e-05
3.577614126e-05
3.577614126e-05
3.577614126e-05
3.577614126e-05
3.577614126e-05
3.577614126e-05
3.577614126e-05
3.577614126e-05
3.577614126e-05
3.577614126e-05
3.577614126e-05
3.577614126e-05
3.577614126e-05
3.577614126e-05
3.577614126e-05
3.577614126e-05
3.577614126e-05
3.577614126e-05
3.577614126e-05
3.577614126e-05
3.577614126e-05
3.577614126e-05
3.577614126e-05
3.577614126e-05
3.577614126e-05
3.577614126e-05
3.577614126e-05
3.577614126e-05
3.577614126e-05
3.577614126e-05
3.577614126e-05
3.577614126e-05
3.577614126e-05
3.577614126e-05
3.577614126e-05
3.577614126e-05
3.577614126e-05
3.577614126e-05
3.577614126e-05
3.577614126e-05
3.577614126e-05
3.577614126e-05
3.577614126e-05
3.577614126e-05
3.577614126e-05
3.577614126e-05
3.577614126e-05
3.577614126e-05
3.577614126e-05
3.577614126e-05
3.577614126e-05
3.577614126e-05
3.577614126e-05
3.577614126e-05
3.577614126e-05
3.577614126e-05
3.577614126e-05
3.577614126e-05
3.577614126e-05
3.577614126e-05
3.577614126e-05
3.577614126e-05
3.577614126e-05
3.577614126e-05
3.577614126e-05
3.577614126e-05
3.577614126e-05
3.577614126e-05
3.577614126e-05
3.577614126e-05
3.577614126e-05
3.577614126e-05
3.577614126e-05
3.577614126e-05
3.577614126e-05
3.577614126e-05
3.577614126e-05
3.577614126e-05
3.577614126e-05
3.577614126e-05
3.577614126e-05
3.577614126e-05
3.577614126e-05
3.577614126e-05
3.577614126e-05
3.577614126e-05
3.577614126e-05
3.577614126e-05
3.577614126e-05
3.577614126e-05
3.577614126e-05
3.577614126e-05
3.577614126e-05
3.577614126e-05
3.577614126e-05
3.577614126e-05
3.577614126e-05
3.577614126e-05
3.577614126e-05
3.577614126e-05
3.577614126e-05
3.577614126e-05
3.577614126e-05
3.577614126e-05
3.577614126e-05
3.577614126e-05
3.577614126e-05
3.577614126e-05
3.577614126e-05
3.577614126e-05
3.577614126e-05
3.577614126e-05
3.577614126e-05
3.577614126e-05
3.577614126e-05
3.577614126e-05
3.577614126e-05
3.577614126e-05
3.577614126e-05
3.577614126e-05
3.577614126e-05
3.577614126e-05
3.577614126e-05
3.577614126e-05
3.577614126e-05
3.577614126e-05
3.577614126e-05
3.577614126e-05
3.577614126e-05
3.577614126e-05
3.577614126e-05
3.577614126e-05
3.577614126e-05
3.577614126e-05
3.577614126e-05
3.577614126e-05
3.577614126e-05
3.577614126e-05
3.577614126e-05
3.577614126e-05
3.577614126e-05
3.577614126e-05
3.577614126e-05
3.577614126e-05
3.577614126e-05
3.577614126e-05
3.577614126e-05
3.577614126e-05
3.577614126e-05
3.577614126e-05
3.577614126e-05
3.577614126e-05
3.577614126e-05
3.577614126e-05
3.577614126e-05
3.577614126e-05
3.577614126e-05
3.577614126e-05
3.577614126e-05
3.577614126e-05
3.577614126e-05
3.577614126e-05
3.577614126e-05
3.577614126e-05
3.577614126e-05
3.577614126e-05
3.577614126e-05
3.577614126e-05
3.577614126e-05
3.577614126e-05
3.577614126e-05
3.577614126e-05
3.577614126e-05
3.577614126e-05
3.577614126e-05
3.577614126e-05
3.577614126e-05
3.577614126e-05
3.577614126e-05
3.577614126e-05
3.577614126e-05
3.577614126e-05
3.577614126e-05
3.577614126e-05
3.577614126e-05
3.577614126e-05
3.577614126e-05
3.577614126e-05
3.577614126e-05
3.577614126e-05
3.577614126e-05
3.577614126e-05
3.577614126e-05
3.577614126e-05
3.577614126e-05
3.577614126e-05
3.577614126e-05
3.577614126e-05
3.577614126e-05
3.577614126e-05
3.577614126e-05
3.577614126e-05
3.577614126e-05
3.577614126e-05
3.577614126e-05
3.577614126e-05
3.577614126e-05
3.577614126e-05
3.577614126e-05
3.577614126e-05
3.577614126e-05
3.577614126e-05
3.577614126e-05
3.577614126e-05
3.577614126e-05
3.577614126e-05
3.577614126e-05
3.577614126e-05
3.577614126e-05
3.577614126e-05
3.577614126e-05
3.577614126e-05
3.577614126e-05
3.577614126e-05
3.577614126e-05
3.577614126e-05
3.577614126e-05
3.577614126e-05
3.577614126e-05
3.577614126e-05
3.577614126e-05
3.577614126e-05
3.577614126e-05
3.577614126e-05
3.577614126e-05
3.577614126e-05
3.577614126e-05
3.577614126e-05
3.577614126e-05
3.577614126e-05
3.577614126e-05
3.577614126e-05
3.577614126e-05
3.577614126e-05
3.577614126e-05
3.577614126e-05
3.577614126e-05
3.577614126e-05
3.577614126e-05
3.577614126e-05
3.577614126e-05
3.577614125e-05
3.577614125e-05
3.577614125e-05
3.577614124e-05
3.577614124e-05
3.577614123e-05
3.577614121e-05
3.57761412e-05
3.577614117e-05
3.577614114e-05
3.57761411e-05
3.577614104e-05
3.577614097e-05
3.577614086e-05
3.577614072e-05
3.577614053e-05
3.577614027e-05
3.577613991e-05
3.577613943e-05
3.577613879e-05
3.57761379e-05
3.577613671e-05
3.577613509e-05
3.57761329e-05
3.577612993e-05
3.57761259e-05
3.577612045e-05
3.577611305e-05
3.577610302e-05
3.577608943e-05
3.5776071e-05
3.577604603e-05
3.577601219e-05
3.577596632e-05
3.577590414e-05
3.577581987e-05
3.577570566e-05
3.577555086e-05
3.577534105e-05
3.577505669e-05
3.577467128e-05
3.577414892e-05
3.577344096e-05
3.577248147e-05
3.57711811e-05
3.57694188e-05
3.576703056e-05
3.576379423e-05
3.575940897e-05
3.575346766e-05
3.57454198e-05
3.573452245e-05
3.571977621e-05
3.569984491e-05
3.567281269e-05
3.563645732e-05
3.558787846e-05
3.552363465e-05
3.544025372e-05
3.533531308e-05
3.521296843e-05
3.509263597e-05
3.503576072e-05
3.519785029e-05
3.593630798e-05
3.79768043e-05
4.261668992e-05
5.194796525e-05
6.975806759e-05
9.904658372e-05
0.0001369850526
0.0001777195984
0.0002174978458
0.0002535138129
0.0002841420588
0.0003091449701
0.0003290264937
0.0003446365022
0.0003570908056
0.0003670879031
0.0003751689343
0.0003817029663
0.0003870345382
0.000391430979
0.0003950924365
0.0003981700986
0.0004007773843
0.0004029973442
0.0004049052179
0.0004065509819
0.0004079822405
0.0004092292438
0.0004103252589
0.0004112927019
0.000412148808
0.0004129109978
0.0004135927393
0.0004142048966
0.0004147566999
0.0004152560464
0.0004157096777
0.0004161233092
0.0004165017899
0.0004168490181
0.0004171680802
0.0004174626958
0.0004177355186
0.0004179886953
0.0004182233321
0.0004184421963
0.0004186465681
0.0004188369261
0.0004190155393
0.0004191826051
0.0004193394027
0.0004194866926
0.0004196249028
0.0004197550925
0.0004198773888
0.0004199927659
0.0004201013575
0.0004202038132
0.0004203005395
0.0004203916696
0.0004204781228
0.0004205594256
0.0004206366574
0.0004207097735
0.0004207789784
0.0004208448764
0.0004209072627
0.0004209666206
0.0004210233147
0.0004210771551
0.0004211285825
0.0004211778743
0.0004212249258
0.0004212699498
0.0004213132651
0.000421354955
0.0004213948407
0.0004214333533
0.0004214705783
0.0004215065149
0.0004215411194
0.0004215746678
0.0004216072163
0.0004216387944
0.0004216692474
0.0004216988542
0.000421727651
0.0004217556729
0.0004217828604
0.0004218092257
0.0004218349083
0.0004218599285
0.0004218843077
0.0004219080158
0.0004219309919
0.0004219533911
0.0004219752273
0.0004219965165
0.0004220172761
0.0004220374567
0.0004220570773
0.0004220762202
0.0004220948981
0.0004221131251
0.0004221309168
0.000422148287
0.0004221651419
0.0004221816127
0.0004221977117
0.000422213452
0.0004222288473
0.0004222439125
0.0004222586634
0.0004222730348
0.0004222870978
0.0004223008885
0.0004223144177
0.0004223276962
0.000422340735
0.0004223535455
0.0004223661394
0.0004223784826
0.0004223905963
0.0004224025237
0.0004224142713
0.0004224258457
0.0004224372531
0.0004224485
0.0004224595927
0.0004224705379
0.0004224813296
0.0004224919423
0.000422502425
0.0004225127802
0.0004225230105
0.0004225331183
0.0004225431061
0.0004225529764
0.000422562732
0.0004225723758
0.0004225819112
0.0004225913199
0.0004226006015
0.0004226097824
0.0004226188633
0.000422627845
0.0004226367284
0.0004226455142
0.0004226542037
0.0004226627979
0.0004226712983
0.0004226797065
0.0004226880245
0.0004226962547
0.0004227043664
0.0004227123902
0.0004227203306
0.0004227281877
0.0004227359619
0.0004227436538
0.0004227512637
0.0004227587921
0.0004227662396
0.0004227736069
0.0004227808948
0.000422788104
0.0004227952356
0.0004228022909
0.0004228092711
0.0004228161495
0.0004228229552
0.0004228296881
0.0004228363481
0.0004228429351
0.000422849449
0.0004228558897
0.0004228622571
0.0004228685511
0.0004228747717
0.0004228809188
0.0004228869925
0.0004228929928
0.0004228989201
0.0004229047744
0.0004229105563
0.0004229162663
0.0004229219052
0.0004229274559
0.0004229329326
0.0004229383386
0.0004229436738
0.0004229489381
0.0004229541312
0.0004229592531
0.0004229643037
0.0004229692829
0.0004229741908
0.0004229790273
0.0004229837926
0.0004229884867
0.0004229931098
0.0004229976622
0.0004230021439
0.0004230065554
0.000423010897
0.0004230151692
0.0004230193725
0.0004230235076
0.0004230275751
0.0004230315761
0.0004230355054
0.0004230393613
0.000423043153
0.0004230468812
0.0004230505462
0.0004230541485
0.0004230576886
0.000423061167
0.0004230645844
0.0004230679412
0.0004230712382
0.000423074476
0.0004230776554
0.0004230807769
0.0004230838414
0.0004230868497
0.0004230898025
0.0004230927009
0.0004230955455
0.0004230983374
0.0004231010775
0.0004231037668
0.0004231064064
0.0004231089973
0.0004231115406
0.0004231140375
0.0004231164893
0.0004231188973
0.0004231212627
0.0004231235871
0.000423125872
0.0004231281191
0.0004231303198
0.0004231324855
0.0004231346177
0.0004231367179
0.0004231387872
0.0004231408271
0.0004231428388
0.0004231448239
0.0004231467838
0.0004231487198
0.0004231506332
0.0004231525256
0.0004231543983
0.0004231562529
0.0004231580907
0.0004231599133
0.0004231617221
0.0004231635186
0.0004231653043
0.0004231670806
0.000423168849
0.000423170611
0.000423172368
0.0004231741216
0.0004231758731
0.0004231776241
0.000423179376
0.0004231811303
0.0004231828884
0.0004231846517
0.0004231864218
0.0004231882
0.0004231899879
0.000423191787
0.0004231935987
0.0004231954245
0.0004231972624
0.0004231991114
0.0004232009785
0.0004232028648
0.0004232047713
0.0004232066987
0.0004232086481
0.0004232106203
0.0004232126162
0.000423214636
0.0004232166809
0.0004232187514
0.0004232208481
0.0004232229716
0.0004232251224
0.0004232273009
0.0004232295076
0.0004232317427
0.0004232340065
0.0004232362994
0.0004232386214
0.0004232409727
0.0004232433534
0.0004232457634
0.0004232482029
0.0004232506717
0.0004232531696
0.0004232556966
0.0004232582524
0.0004232608368
0.0004232634494
0.00042326609
0.0004232687582
0.0004232714536
0.0004232741759
0.0004232769246
0.0004232796992
0.0004232825086
0.0004232853427
0.0004232882004
0.0004232910808
0.0004232939828
0.0004232969054
0.0004232998475
0.0004233028078
0.0004233057853
0.0004233087788
0.0004233117868
0.0004233148083
0.0004233178418
0.000423320886
0.0004233239395
0.000423327001
0.000423330069
0.000423333142
0.0004233362187
0.0004233392975
0.0004233423769
0.0004233454555
0.0004233485317
0.000423351604
0.0004233546709
0.0004233577309
0.0004233607823
0.0004233638237
0.0004233668536
0.0004233698704
0.0004233728727
0.0004233758588
0.0004233788273
0.0004233817767
0.0004233847056
0.0004233876125
0.0004233904959
0.0004233933545
0.0004233961868
0.0004233989916
0.0004234017674
0.0004234045129
0.0004234072269
0.0004234099081
0.0004234125553
0.0004234151673
0.000423417743
0.0004234202812
0.000423422781
0.0004234252411
0.0004234276608
0.0004234300389
0.0004234323747
0.0004234346673
0.0004234369157
0.0004234391194
0.0004234412775
0.0004234433893
0.0004234454544
0.000423447472
0.0004234494417
0.0004234513629
0.0004234532353
0.0004234550585
0.0004234568321
0.0004234585559
0.0004234602297
0.0004234618533
0.0004234634266
0.0004234649495
0.0004234664221
0.0004234678442
0.0004234692162
0.000423470538
0.0004234718098
0.000423473032
0.0004234742049
0.0004234753286
0.0004234764037
0.0004234774306
0.0004234784098
0.0004234793418
0.0004234802272
0.0004234810666
0.0004234818607
0.0004234826102
0.0004234833158
0.0004234839784
0.0004234845988
0.0004234851778
0.0004234857165
0.0004234862156
0.0004234866763
0.0004234870994
0.0004234874862
0.0004234878375
0.0004234881547
0.0004234884386
0.0004234886906
0.0004234889118
0.0004234891032
0.0004234892661
0.0004234894021
0.0004234895114
0.0004234895965
0.0004234896581
0.0004234897007
0.0004234897243
0.000423489727
0.0004234897105
0.0004234896757
0.0004234896236
0.0004234895552
0.0004234894711
0.0004234893722
0.0004234892588
0.0004234891313
0.0004234889898
0.0004234888342
0.0004234886639
0.000423488478
0.000423488275
0.0004234880529
0.0004234878086
0.0004234875377
0.0004234872345
0.0004234868907
0.0004234864954
0.0004234860336
0.0004234853625
0.0004234846091
0.0004234838483
0.0004234830815
0.0004234823101
0.0004234815355
0.0004234807592
0.0004234799826
0.0004234792077
0.0004234784351
0.000423477667
0.0004234769048
0.0004234761503
0.0004234754049
0.0004234746703
0.0004234739482
0.0004234732401
0.0004234725477
0.0004234718727
0.0004234712167
0.0004234705814
0.0004234699684
0.0004234693795
0.0004234688164
0.0004234682807
0.0004234677742
0.0004234672986
0.0004234668556
0.0004234664469
0.0004234660744
0.0004234657397
0.0004234654445
0.0004234651908
0.0004234649801
0.0004234648143
0.0004234646952
0.0004234646248
0.0004234646053
0.0004234646347
0.0004234647221
0.0004234648669
0.0004234650692
0.0004234653309
0.0004234656538
0.0004234660398
0.0004234664907
0.0004234670082
0.0004234675943
0.0004234682506
0.0004234689791
0.0004234697815
0.0004234706596
0.0004234716152
0.0004234726499
0.0004234737656
0.0004234749638
0.0004234762462
0.0004234776142
0.0004234790694
0.0004234806132
0.0004234822466
0.0004234839708
0.0004234857866
0.0004234876947
0.0004234896953
0.0004234917884
0.0004234939735
0.0004234962494
0.0004234986144
0.0004235010658
0.0004235036001
0.0004235062124
0.0004235088963
0.0004235116434
0.0004235144433
0.0004235172827
0.0004235201448
0.000423523009
0.0004235258495
0.0004235286348
0.0004235313257
0.0004235338745
0.000423536223
0.0004235383001
0.0004235400197
0.0004235412774
0.0004235419477
)
;

boundaryField
{
    inlet
    {
        type            calculated;
        value           uniform 3.577614126e-05;
    }
    outlet
    {
        type            calculated;
        value           uniform 0.0004235419477;
    }
    upperWall
    {
        type            empty;
    }
    lowerWall
    {
        type            empty;
    }
    frontAndBack
    {
        type            empty;
    }
}


// ************************************************************************* //
