/*--------------------------------*- C++ -*----------------------------------*\
  =========                 |
  \\      /  F ield         | OpenFOAM: The Open Source CFD Toolbox
   \\    /   O peration     | Website:  https://openfoam.org
    \\  /    A nd           | Version:  9
     \\/     M anipulation  |
\*---------------------------------------------------------------------------*/
FoamFile
{
    format      ascii;
    class       volScalarField;
    location    "0.019";
    object      dCC;
}
// * * * * * * * * * * * * * * * * * * * * * * * * * * * * * * * * * * * * * //

dimensions      [1 -1 -1 0 0 0 0];

internalField   nonuniform List<scalar> 
1000
(
2.539345606e-05
2.539345606e-05
2.539345606e-05
2.539345606e-05
2.539345606e-05
2.539345606e-05
2.539345606e-05
2.539345606e-05
2.539345606e-05
2.539345606e-05
2.539345606e-05
2.539345606e-05
2.539345606e-05
2.539345606e-05
2.539345606e-05
2.539345606e-05
2.539345606e-05
2.539345606e-05
2.539345606e-05
2.539345606e-05
2.539345606e-05
2.539345606e-05
2.539345606e-05
2.539345606e-05
2.539345606e-05
2.539345606e-05
2.539345606e-05
2.539345606e-05
2.539345606e-05
2.539345606e-05
2.539345606e-05
2.539345606e-05
2.539345606e-05
2.539345606e-05
2.539345606e-05
2.539345606e-05
2.539345606e-05
2.539345606e-05
2.539345606e-05
2.539345606e-05
2.539345606e-05
2.539345606e-05
2.539345606e-05
2.539345606e-05
2.539345606e-05
2.539345606e-05
2.539345606e-05
2.539345606e-05
2.539345606e-05
2.539345606e-05
2.539345606e-05
2.539345606e-05
2.539345606e-05
2.539345606e-05
2.539345606e-05
2.539345606e-05
2.539345606e-05
2.539345606e-05
2.539345606e-05
2.539345606e-05
2.539345606e-05
2.539345606e-05
2.539345606e-05
2.539345606e-05
2.539345606e-05
2.539345606e-05
2.539345606e-05
2.539345606e-05
2.539345606e-05
2.539345606e-05
2.539345606e-05
2.539345606e-05
2.539345606e-05
2.539345606e-05
2.539345606e-05
2.539345606e-05
2.539345606e-05
2.539345606e-05
2.539345606e-05
2.539345606e-05
2.539345606e-05
2.539345606e-05
2.539345606e-05
2.539345606e-05
2.539345606e-05
2.539345606e-05
2.539345606e-05
2.539345606e-05
2.539345606e-05
2.539345606e-05
2.539345606e-05
2.539345606e-05
2.539345606e-05
2.539345606e-05
2.539345606e-05
2.539345606e-05
2.539345606e-05
2.539345606e-05
2.539345606e-05
2.539345606e-05
2.539345606e-05
2.539345606e-05
2.539345606e-05
2.539345606e-05
2.539345606e-05
2.539345606e-05
2.539345606e-05
2.539345606e-05
2.539345606e-05
2.539345606e-05
2.539345606e-05
2.539345606e-05
2.539345606e-05
2.539345606e-05
2.539345606e-05
2.539345606e-05
2.539345606e-05
2.539345606e-05
2.539345606e-05
2.539345606e-05
2.539345606e-05
2.539345606e-05
2.539345606e-05
2.539345606e-05
2.539345606e-05
2.539345606e-05
2.539345606e-05
2.539345606e-05
2.539345606e-05
2.539345606e-05
2.539345606e-05
2.539345606e-05
2.539345606e-05
2.539345606e-05
2.539345606e-05
2.539345606e-05
2.539345606e-05
2.539345606e-05
2.539345606e-05
2.539345606e-05
2.539345606e-05
2.539345606e-05
2.539345606e-05
2.539345606e-05
2.539345606e-05
2.539345606e-05
2.539345606e-05
2.539345606e-05
2.539345606e-05
2.539345606e-05
2.539345606e-05
2.539345606e-05
2.539345606e-05
2.539345606e-05
2.539345606e-05
2.539345606e-05
2.539345606e-05
2.539345606e-05
2.539345606e-05
2.539345606e-05
2.539345606e-05
2.539345606e-05
2.539345606e-05
2.539345606e-05
2.539345606e-05
2.539345606e-05
2.539345606e-05
2.539345606e-05
2.539345606e-05
2.539345606e-05
2.539345606e-05
2.539345606e-05
2.539345606e-05
2.539345606e-05
2.539345606e-05
2.539345606e-05
2.539345606e-05
2.539345606e-05
2.539345606e-05
2.539345606e-05
2.539345606e-05
2.539345606e-05
2.539345606e-05
2.539345606e-05
2.539345606e-05
2.539345606e-05
2.539345606e-05
2.539345606e-05
2.539345606e-05
2.539345606e-05
2.539345606e-05
2.539345606e-05
2.539345606e-05
2.539345606e-05
2.539345606e-05
2.539345606e-05
2.539345606e-05
2.539345606e-05
2.539345606e-05
2.539345606e-05
2.539345606e-05
2.539345606e-05
2.539345606e-05
2.539345606e-05
2.539345606e-05
2.539345606e-05
2.539345606e-05
2.539345606e-05
2.539345606e-05
2.539345606e-05
2.539345606e-05
2.539345606e-05
2.539345606e-05
2.539345606e-05
2.539345606e-05
2.539345606e-05
2.539345606e-05
2.539345606e-05
2.539345606e-05
2.539345606e-05
2.539345606e-05
2.539345606e-05
2.539345606e-05
2.539345606e-05
2.539345606e-05
2.539345606e-05
2.539345606e-05
2.539345606e-05
2.539345606e-05
2.539345606e-05
2.539345606e-05
2.539345606e-05
2.539345606e-05
2.539345606e-05
2.539345606e-05
2.539345606e-05
2.539345606e-05
2.539345606e-05
2.539345606e-05
2.539345606e-05
2.539345606e-05
2.539345606e-05
2.539345606e-05
2.539345606e-05
2.539345606e-05
2.539345606e-05
2.539345606e-05
2.539345606e-05
2.539345606e-05
2.539345606e-05
2.539345606e-05
2.539345606e-05
2.539345606e-05
2.539345606e-05
2.539345606e-05
2.539345606e-05
2.539345606e-05
2.539345606e-05
2.539345606e-05
2.539345606e-05
2.539345606e-05
2.539345606e-05
2.539345606e-05
2.539345606e-05
2.539345606e-05
2.539345606e-05
2.539345606e-05
2.539345606e-05
2.539345606e-05
2.539345606e-05
2.539345606e-05
2.539345606e-05
2.539345606e-05
2.539345606e-05
2.539345606e-05
2.539345606e-05
2.539345606e-05
2.539345606e-05
2.539345606e-05
2.539345606e-05
2.539345606e-05
2.539345606e-05
2.539345606e-05
2.539345606e-05
2.539345606e-05
2.539345606e-05
2.539345606e-05
2.539345606e-05
2.539345606e-05
2.539345606e-05
2.539345606e-05
2.539345606e-05
2.539345606e-05
2.539345606e-05
2.539345606e-05
2.539345606e-05
2.539345606e-05
2.539345606e-05
2.539345606e-05
2.539345606e-05
2.539345606e-05
2.539345606e-05
2.539345606e-05
2.539345606e-05
2.539345606e-05
2.539345606e-05
2.539345606e-05
2.539345606e-05
2.539345606e-05
2.539345606e-05
2.539345606e-05
2.539345606e-05
2.539345606e-05
2.539345606e-05
2.539345606e-05
2.539345606e-05
2.539345606e-05
2.539345606e-05
2.539345606e-05
2.539345606e-05
2.539345606e-05
2.539345606e-05
2.539345606e-05
2.539345606e-05
2.539345606e-05
2.539345606e-05
2.539345606e-05
2.539345606e-05
2.539345606e-05
2.539345606e-05
2.539345606e-05
2.539345606e-05
2.539345606e-05
2.539345606e-05
2.539345606e-05
2.539345606e-05
2.539345606e-05
2.539345606e-05
2.539345606e-05
2.539345606e-05
2.539345606e-05
2.539345606e-05
2.539345606e-05
2.539345606e-05
2.539345606e-05
2.539345606e-05
2.539345606e-05
2.539345606e-05
2.539345606e-05
2.539345606e-05
2.539345606e-05
2.539345606e-05
2.539345606e-05
2.539345606e-05
2.539345606e-05
2.539345606e-05
2.539345606e-05
2.539345606e-05
2.539345606e-05
2.539345606e-05
2.539345606e-05
2.539345606e-05
2.539345606e-05
2.539345606e-05
2.539345606e-05
2.539345606e-05
2.539345606e-05
2.539345606e-05
2.539345606e-05
2.539345606e-05
2.539345606e-05
2.539345606e-05
2.539345606e-05
2.539345606e-05
2.539345606e-05
2.539345606e-05
2.539345606e-05
2.539345606e-05
2.539345606e-05
2.539345606e-05
2.539345606e-05
2.539345606e-05
2.539345606e-05
2.539345606e-05
2.539345606e-05
2.539345606e-05
2.539345606e-05
2.539345606e-05
2.539345606e-05
2.539345606e-05
2.539345606e-05
2.539345606e-05
2.539345606e-05
2.539345606e-05
2.539345606e-05
2.539345606e-05
2.539345606e-05
2.539345606e-05
2.539345606e-05
2.539345606e-05
2.539345606e-05
2.539345606e-05
2.539345606e-05
2.539345606e-05
2.539345606e-05
2.539345606e-05
2.539345606e-05
2.539345606e-05
2.539345607e-05
2.539345607e-05
2.539345607e-05
2.539345607e-05
2.539345607e-05
2.539345607e-05
2.539345607e-05
2.539345608e-05
2.539345608e-05
2.539345609e-05
2.53934561e-05
2.539345611e-05
2.539345612e-05
2.539345615e-05
2.539345618e-05
2.539345622e-05
2.539345627e-05
2.539345634e-05
2.539345645e-05
2.539345658e-05
2.539345676e-05
2.539345701e-05
2.539345735e-05
2.539345781e-05
2.539345843e-05
2.539345927e-05
2.539346041e-05
2.539346196e-05
2.539346405e-05
2.539346689e-05
2.539347074e-05
2.539347596e-05
2.539348302e-05
2.539349261e-05
2.539350559e-05
2.539352319e-05
2.539354705e-05
2.539357938e-05
2.53936232e-05
2.539368259e-05
2.539376309e-05
2.539387219e-05
2.539402005e-05
2.539422048e-05
2.539449217e-05
2.539486053e-05
2.539536017e-05
2.539603835e-05
2.539696013e-05
2.539821616e-05
2.539993544e-05
2.540225671e-05
2.540549706e-05
2.541012523e-05
2.541695036e-05
2.542749832e-05
2.544468293e-05
2.547551346e-05
2.553579473e-05
2.565920699e-05
2.592029191e-05
2.648836368e-05
2.770627021e-05
3.014180104e-05
3.423398814e-05
4.078058468e-05
4.956681391e-05
5.906092642e-05
6.782566138e-05
7.545167494e-05
8.193239753e-05
8.73577938e-05
9.189244316e-05
9.568886562e-05
9.882194506e-05
0.0001015166128
0.0001036844747
0.0001052967897
0.0001064797997
0.0001073451379
0.0001079926638
0.0001084816554
0.0001088550352
0.0001091435527
0.0001093672885
0.0001095469908
0.0001096932237
0.000109815542
0.0001099183495
0.0001100064393
0.0001100825415
0.0001101486554
0.0001102067749
0.0001102583707
0.0001103045756
0.0001103462957
0.0001103842646
0.0001104190822
0.0001104512353
0.0001104811066
0.000110509013
0.0001105352527
0.0001105599806
0.0001105833508
0.0001106055093
0.0001106267662
0.0001106470191
0.0001106663545
0.0001106850977
0.0001107029808
0.0001107203177
0.0001107370327
0.0001107531414
0.0001107688074
0.0001107838393
0.0001107985347
0.0001108126471
0.0001108264244
0.0001108397423
0.0001108526291
0.0001108652639
0.0001108772707
0.0001108893613
0.0001109008708
0.0001109121161
0.0001109231724
0.000110933725
0.0001109442315
0.0001109544449
0.0001109642215
0.0001109739903
0.0001109834783
0.000110992587
0.0001110016585
0.0001110106194
0.0001110192471
0.0001110276091
0.0001110361333
0.0001110443622
0.0001110523117
0.0001110601242
0.0001110679942
0.0001110756135
0.0001110829942
0.0001110901846
0.0001110975125
0.0001111046221
0.0001111115238
0.0001111182266
0.0001111249297
0.0001111316766
0.0001111382371
0.0001111446179
0.000111150826
0.0001111569584
0.000111163161
0.000111169202
0.0001111750866
0.0001111808205
0.0001111864095
0.0001111919844
0.0001111975459
0.0001112029724
0.0001112082682
0.0001112134378
0.0001112184857
0.0001112234212
0.000111228382
0.0001112332319
0.0001112379741
0.0001112426121
0.0001112471494
0.0001112515899
0.0001112559374
0.0001112602533
0.0001112645
0.000111268662
0.0001112727419
0.0001112767422
0.0001112806655
0.0001112845146
0.0001112882923
0.000111292004
0.0001112956516
0.000111299235
0.0001113027556
0.0001113062152
0.0001113096152
0.0001113129576
0.0001113162439
0.0001113194763
0.0001113226567
0.0001113257875
0.0001113288692
0.0001113319029
0.0001113348894
0.0001113378297
0.0001113407247
0.0001113435755
0.0001113463831
0.0001113491487
0.0001113518737
0.0001113545463
0.0001113571656
0.0001113597479
0.0001113622937
0.0001113648035
0.0001113672778
0.0001113697173
0.0001113721226
0.0001113744943
0.0001113768331
0.0001113791397
0.000111381415
0.00011138366
0.0001113858396
0.0001113879867
0.0001113901059
0.0001113921975
0.0001113942618
0.0001113962991
0.0001113983096
0.0001114002938
0.0001114022518
0.0001114041841
0.000111406091
0.000111407973
0.0001114098305
0.0001114116639
0.0001114134731
0.0001114151142
0.0001114167349
0.0001114183353
0.0001114199154
0.0001114214754
0.0001114230154
0.0001114245355
0.0001114260358
0.0001114275165
0.0001114289776
0.0001114304194
0.000111431842
0.0001114332455
0.0001114346303
0.0001114359966
0.0001114373446
0.0001114386748
0.0001114399877
0.0001114408339
0.0001114415747
0.0001114423057
0.000111443027
0.0001114437386
0.0001114444406
0.0001114451328
0.0001114458154
0.0001114464883
0.0001114471517
0.0001114478054
0.0001114484495
0.0001114490842
0.0001114497094
0.0001114503251
0.0001114509315
0.0001114515286
0.0001114521164
0.0001114526951
0.0001114532647
0.0001114538254
0.0001114543773
0.0001114549205
0.0001114554521
0.0001114559708
0.0001114564813
0.0001114569837
0.000111457478
0.0001114579643
0.0001114584427
0.0001114589133
0.0001114593761
0.0001114598312
0.0001114602787
0.0001114607188
0.0001114611515
0.0001114615769
0.0001114619951
0.0001114624063
0.0001114628105
0.0001114632079
0.0001114635986
0.0001114639827
0.0001114643604
0.0001114647317
0.0001114650969
0.000111465456
0.0001114658092
0.0001114661567
0.0001114664986
0.0001114668352
0.0001114671665
0.0001114674928
0.0001114678142
0.0001114681311
0.0001114684419
0.0001114687485
0.000111469051
0.0001114693497
0.0001114696447
0.0001114699361
0.0001114702242
0.0001114705091
0.000111470791
0.0001114710701
0.0001114713465
0.0001114716203
0.0001114718919
0.0001114721613
0.0001114724287
0.0001114726943
0.0001114729583
0.0001114732209
0.0001114734821
0.0001114737423
0.0001114740015
0.00011147426
0.0001114745179
0.0001114747754
0.0001114750326
0.0001114752898
0.0001114755471
0.0001114758046
0.0001114760625
0.0001114763211
0.0001114765804
0.0001114768406
0.000111477102
0.0001114773646
0.0001114776286
0.0001114778943
0.0001114781612
0.000111478429
0.000111478699
0.0001114789711
0.0001114792454
0.0001114795222
0.0001114798014
0.0001114800831
0.0001114803675
0.0001114806545
0.0001114809442
0.0001114812367
0.000111481532
0.0001114818303
0.0001114821315
0.0001114824356
0.0001114827428
0.0001114830529
0.0001114833661
0.0001114836823
0.0001114840015
0.0001114843238
0.0001114846491
0.0001114849774
0.0001114853086
0.0001114856428
0.0001114859799
0.0001114863199
0.0001114866627
0.0001114870083
0.0001114873566
0.0001114877076
0.0001114880612
0.0001114884174
0.000111488776
0.0001114891371
0.0001114895006
0.0001114898663
0.0001114902342
0.0001114906042
0.0001114909761
0.0001114913498
0.0001114917251
0.0001114921019
0.0001114924801
0.0001114928595
0.0001114932399
0.0001114936212
0.0001114940032
0.0001114943858
0.0001114947688
0.0001114951519
0.0001114955351
0.0001114959182
0.000111496301
0.0001114966832
0.0001114970649
0.0001114974456
0.0001114978254
0.0001114982039
0.0001114985811
0.0001114989567
0.0001114993306
0.0001114997026
0.0001115000725
0.0001115004401
0.0001115008053
0.0001115011679
0.0001115015277
0.0001115018845
0.0001115022383
0.0001115025888
0.0001115029359
0.0001115032794
0.0001115036192
0.0001115039551
0.000111504287
0.0001115046147
0.0001115049381
0.0001115052571
0.0001115055716
0.0001115058813
0.0001115061863
0.0001115064864
0.0001115067814
0.0001115070713
0.000111507356
0.0001115076354
0.0001115079095
0.000111508178
0.000111508441
0.0001115086983
0.00011150895
0.000111509196
0.0001115094361
0.0001115096704
0.0001115098989
0.0001115101214
0.000111510338
0.0001115105486
0.0001115107533
0.000111510952
0.0001115111446
0.0001115113314
0.0001115115121
0.0001115116869
0.0001115118557
0.0001115120186
0.0001115121757
0.0001115123269
0.0001115124723
0.000111512612
0.000111512746
0.0001115128744
0.0001115129972
0.0001115131145
0.0001115132264
0.000111513333
0.0001115134343
0.0001115135305
0.0001115136217
0.0001115137079
0.0001115137893
0.0001115138659
0.000111513938
0.0001115140055
0.0001115140687
0.0001115141276
0.0001115141824
0.0001115142333
0.0001115142803
0.0001115143236
0.0001115143633
0.0001115143997
0.0001115144328
0.0001115144627
0.0001115144897
0.0001115145139
0.0001115145354
0.0001115145544
0.0001115145709
0.0001115145854
0.0001115145979
0.0001115146089
0.0001115146185
0.0001115146263
0.0001115146326
0.0001115146374
0.0001115146408
0.0001115146431
0.0001115146441
0.0001115146441
0.000111514643
0.0001115146408
0.0001115146375
0.0001115146331
0.0001115146274
0.0001115146202
0.0001115146114
0.0001115146005
0.000111514587
0.0001115145703
0.0001115145495
0.0001115145233
0.0001115144901
0.0001115144475
0.0001115143756
0.0001115142922
0.000111514208
0.0001115141231
0.0001115140377
0.000111513952
0.0001115138661
0.0001115137801
0.0001115136943
0.0001115136088
0.0001115135238
0.0001115134394
0.0001115133559
0.0001115132734
0.0001115131921
0.0001115131122
0.0001115130338
0.0001115129572
0.0001115128825
0.0001115128099
0.0001115127395
0.0001115126717
0.0001115126065
0.0001115125442
0.0001115124849
0.0001115124288
0.0001115123762
0.0001115123272
0.0001115122819
0.0001115122407
0.0001115122036
0.000111512171
0.0001115121429
0.0001115121196
0.0001115121012
0.000111512088
0.0001115120802
0.0001115120781
0.0001115120813
0.000111512091
0.000111512107
0.0001115121294
0.0001115121584
0.0001115121941
0.0001115122369
0.0001115122868
0.000111512344
0.0001115124089
0.0001115124816
0.0001115125622
0.000111512651
0.0001115127482
0.000111512854
0.0001115129685
0.000111513092
0.0001115132246
0.0001115133665
0.000111513518
0.000111513679
0.0001115138499
0.0001115140307
0.0001115142215
0.0001115144225
0.0001115146337
0.0001115148551
0.0001115150868
0.0001115153287
0.0001115155806
0.0001115158423
0.0001115161137
0.0001115163942
0.0001115166833
0.0001115169804
0.0001115172844
0.0001115175943
0.0001115179086
0.0001115182254
0.0001115185424
0.0001115188568
0.0001115191651
0.0001115194629
0.0001115197451
0.000111520005
0.0001115202349
0.0001115204252
0.0001115205644
0.0001115206386
)
;

boundaryField
{
    inlet
    {
        type            calculated;
        value           uniform 2.539345606e-05;
    }
    outlet
    {
        type            calculated;
        value           uniform 0.0001115206386;
    }
    upperWall
    {
        type            empty;
    }
    lowerWall
    {
        type            empty;
    }
    frontAndBack
    {
        type            empty;
    }
}


// ************************************************************************* //
