/*--------------------------------*- C++ -*----------------------------------*\
  =========                 |
  \\      /  F ield         | OpenFOAM: The Open Source CFD Toolbox
   \\    /   O peration     | Website:  https://openfoam.org
    \\  /    A nd           | Version:  9
     \\/     M anipulation  |
\*---------------------------------------------------------------------------*/
FoamFile
{
    format      ascii;
    class       volScalarField;
    location    "0.019";
    object      dCZ;
}
// * * * * * * * * * * * * * * * * * * * * * * * * * * * * * * * * * * * * * //

dimensions      [1 -1 -1 0 0 0 0];

internalField   nonuniform List<scalar> 
1000
(
-4.958910793e-15
-4.958910793e-15
-4.958910793e-15
-4.958910793e-15
-4.958910793e-15
-4.958910793e-15
-4.958910793e-15
-4.958910793e-15
-4.958910793e-15
-4.958910793e-15
-4.958910793e-15
-4.958910793e-15
-4.958910793e-15
-4.958910793e-15
-4.958910793e-15
-4.958910793e-15
-4.958910793e-15
-4.958910793e-15
-4.958910793e-15
-4.958910793e-15
-4.958910793e-15
-4.958910793e-15
-4.958910793e-15
-4.958910793e-15
-4.958910793e-15
-4.958910793e-15
-4.958910793e-15
-4.958910793e-15
-4.958910793e-15
-4.958910793e-15
-4.958910793e-15
-4.958910793e-15
-4.958910793e-15
-4.958910793e-15
-4.958910793e-15
-4.958910793e-15
-4.958910793e-15
-4.958910793e-15
-4.958910793e-15
-4.958910793e-15
-4.958910793e-15
-4.958910793e-15
-4.958910793e-15
-4.958910793e-15
-4.958910793e-15
-4.958910793e-15
-4.958910793e-15
-4.958910793e-15
-4.958910793e-15
-4.958910793e-15
-4.958910793e-15
-4.958910793e-15
-4.958910793e-15
-4.958910793e-15
-4.958910793e-15
-4.958910793e-15
-4.958910793e-15
-4.958910793e-15
-4.958910793e-15
-4.958910793e-15
-4.958910793e-15
-4.958910793e-15
-4.958910793e-15
-4.958910793e-15
-4.958910793e-15
-4.958910793e-15
-4.958910793e-15
-4.958910793e-15
-4.958910793e-15
-4.958910793e-15
-4.958910793e-15
-4.958910793e-15
-4.958910793e-15
-4.958910793e-15
-4.958910793e-15
-4.958910793e-15
-4.958910793e-15
-4.958910793e-15
-4.958910793e-15
-4.958910793e-15
-4.958910793e-15
-4.958910793e-15
-4.958910793e-15
-4.958910793e-15
-4.958910793e-15
-4.958910793e-15
-4.958910793e-15
-4.958910793e-15
-4.958910793e-15
-4.958910793e-15
-4.958910793e-15
-4.958910793e-15
-4.958910793e-15
-4.958910793e-15
-4.958910793e-15
-4.958910793e-15
-4.958910793e-15
-4.958910793e-15
-4.958910793e-15
-4.958910793e-15
-4.958910793e-15
-4.958910793e-15
-4.958910793e-15
-4.958910793e-15
-4.958910793e-15
-4.958910793e-15
-4.958910793e-15
-4.958910793e-15
-4.958910793e-15
-4.958910793e-15
-4.958910793e-15
-4.958910793e-15
-4.958910793e-15
-4.958910793e-15
-4.958910793e-15
-4.958910793e-15
-4.958910793e-15
-4.958910793e-15
-4.958910793e-15
-4.958910793e-15
-4.958910793e-15
-4.958910793e-15
-4.958910793e-15
-4.958910793e-15
-4.958910793e-15
-4.958910793e-15
-4.958910793e-15
-4.958910793e-15
-4.958910793e-15
-4.958910793e-15
-4.958910793e-15
-4.958910793e-15
-4.958910793e-15
-4.958910793e-15
-4.958910793e-15
-4.958910793e-15
-4.958910793e-15
-4.958910793e-15
-4.958910793e-15
-4.958910793e-15
-4.958910793e-15
-4.958910793e-15
-4.958910793e-15
-4.958910793e-15
-4.958910793e-15
-4.958910793e-15
-4.958910793e-15
-4.958910793e-15
-4.958910793e-15
-4.958910793e-15
-4.958910793e-15
-4.958910793e-15
-4.958910793e-15
-4.958910793e-15
-4.958910793e-15
-4.958910793e-15
-4.958910793e-15
-4.958910793e-15
-4.958910793e-15
-4.958910793e-15
-4.958910793e-15
-4.958910793e-15
-4.958910793e-15
-4.958910793e-15
-4.958910793e-15
-4.958910793e-15
-4.958910793e-15
-4.958910793e-15
-4.958910793e-15
-4.958910793e-15
-4.958910793e-15
-4.958910793e-15
-4.958910793e-15
-4.958910793e-15
-4.958910793e-15
-4.958910793e-15
-4.958910793e-15
-4.958910793e-15
-4.958910793e-15
-4.958910793e-15
-4.958910793e-15
-4.958910793e-15
-4.958910793e-15
-4.958910793e-15
-4.958910793e-15
-4.958910793e-15
-4.958910793e-15
-4.958910793e-15
-4.958910793e-15
-4.958910793e-15
-4.958910793e-15
-4.958910793e-15
-4.958910793e-15
-4.958910793e-15
-4.958910793e-15
-4.958910793e-15
-4.958910793e-15
-4.958910793e-15
-4.958910793e-15
-4.958910793e-15
-4.958910793e-15
-4.958910793e-15
-4.958910793e-15
-4.958910793e-15
-4.958910793e-15
-4.958910793e-15
-4.958910793e-15
-4.958910793e-15
-4.958910793e-15
-4.958910793e-15
-4.958910793e-15
-4.958910793e-15
-4.958910793e-15
-4.958910793e-15
-4.958910793e-15
-4.958910793e-15
-4.958910793e-15
-4.958910793e-15
-4.958910793e-15
-4.958910793e-15
-4.958910793e-15
-4.958910793e-15
-4.958910793e-15
-4.958910793e-15
-4.958910793e-15
-4.958910793e-15
-4.958910793e-15
-4.958910793e-15
-4.958910793e-15
-4.958910793e-15
-4.958910793e-15
-4.958910793e-15
-4.958910793e-15
-4.958910793e-15
-4.958910793e-15
-4.958910793e-15
-4.958910793e-15
-4.958910793e-15
-4.958910793e-15
-4.958910793e-15
-4.958910793e-15
-4.958910793e-15
-4.958910793e-15
-4.958910793e-15
-4.958910793e-15
-4.958910793e-15
-4.958910793e-15
-4.958910793e-15
-4.958910793e-15
-4.958910793e-15
-4.958910793e-15
-4.958910793e-15
-4.958910793e-15
-4.958910793e-15
-4.958910793e-15
-4.958910793e-15
-4.958910793e-15
-4.958910793e-15
-4.958910793e-15
-4.958910793e-15
-4.958910793e-15
-4.958910793e-15
-4.958910793e-15
-4.958910793e-15
-4.958910793e-15
-4.958910793e-15
-4.958910793e-15
-4.958910793e-15
-4.958910793e-15
-4.958910793e-15
-4.958910793e-15
-4.958910793e-15
-4.958910793e-15
-4.958910793e-15
-4.958910793e-15
-4.958910793e-15
-4.958910793e-15
-4.958910793e-15
-4.958910793e-15
-4.958910793e-15
-4.958910793e-15
-4.958910793e-15
-4.958910793e-15
-4.958910793e-15
-4.958910793e-15
-4.958910793e-15
-4.958910793e-15
-4.958910793e-15
-4.958910793e-15
-4.958910793e-15
-4.958910793e-15
-4.958910793e-15
-4.958910793e-15
-4.958910793e-15
-4.958910793e-15
-4.958910793e-15
-4.958910793e-15
-4.958910793e-15
-4.958910793e-15
-4.958910793e-15
-4.958910793e-15
-4.958910793e-15
-4.958910793e-15
-4.958910793e-15
-4.958910793e-15
-4.958910793e-15
-4.958910793e-15
-4.958910793e-15
-4.958910793e-15
-4.958910793e-15
-4.958910793e-15
-4.958910793e-15
-4.958910793e-15
-4.958910793e-15
-4.958910793e-15
-4.958910793e-15
-4.958910793e-15
-4.958910793e-15
-4.958910793e-15
-4.958910793e-15
-4.958910793e-15
-4.958910793e-15
-4.958910793e-15
-4.958910793e-15
-4.958910793e-15
-4.958910793e-15
-4.958910793e-15
-4.958910793e-15
-4.958910793e-15
-4.958910793e-15
-4.958910793e-15
-4.958910793e-15
-4.958910793e-15
-4.958910793e-15
-4.958910793e-15
-4.958910793e-15
-4.958910793e-15
-4.958910793e-15
-4.958910793e-15
-4.958910793e-15
-4.958910793e-15
-4.958910793e-15
-4.958910793e-15
-4.958910793e-15
-4.958910793e-15
-4.958910793e-15
-4.958910793e-15
-4.958910793e-15
-4.958910793e-15
-4.958910793e-15
-4.958910793e-15
-4.958910793e-15
-4.958910793e-15
-4.958910793e-15
-4.958910793e-15
-4.958910793e-15
-4.958910793e-15
-4.958910793e-15
-4.958910793e-15
-4.958910793e-15
-4.958910793e-15
-4.958910793e-15
-4.958910793e-15
-4.958910793e-15
-4.958910793e-15
-4.958910793e-15
-4.958910793e-15
-4.958910793e-15
-4.958910793e-15
-4.958910793e-15
-4.958910793e-15
-4.958910793e-15
-4.958910793e-15
-4.958910793e-15
-4.958910793e-15
-4.958910793e-15
-4.958910793e-15
-4.958910793e-15
-4.958910793e-15
-4.958910793e-15
-4.958910793e-15
-4.958910793e-15
-4.958910793e-15
-4.958910793e-15
-4.958910793e-15
-4.958910793e-15
-4.958910793e-15
-4.958910793e-15
-4.958910793e-15
-4.958910793e-15
-4.958910793e-15
-4.958910793e-15
-4.958910792e-15
-4.958910792e-15
-4.958910792e-15
-4.958910791e-15
-4.95891079e-15
-4.958910789e-15
-4.958910788e-15
-4.958910786e-15
-4.958910783e-15
-4.958910779e-15
-4.958910774e-15
-4.958910767e-15
-4.958910758e-15
-4.958910746e-15
-4.958910729e-15
-4.958910706e-15
-4.958910675e-15
-4.958910633e-15
-4.958910575e-15
-4.958910498e-15
-4.958910393e-15
-4.95891025e-15
-4.958910057e-15
-4.958909795e-15
-4.958909439e-15
-4.958908958e-15
-4.958908305e-15
-4.95890742e-15
-4.95890622e-15
-4.958904594e-15
-4.95890239e-15
-4.958899402e-15
-4.958895351e-15
-4.958889861e-15
-4.958882419e-15
-4.958872333e-15
-4.958858662e-15
-4.958840136e-15
-4.958815035e-15
-4.958781038e-15
-4.95873503e-15
-4.958672852e-15
-4.958589022e-15
-4.958476515e-15
-4.958326812e-15
-4.958130884e-15
-4.957882792e-15
-4.95759025e-15
-4.95730319e-15
-4.957188143e-15
-4.957718388e-15
-4.960155422e-15
-4.967761776e-15
-4.988847399e-15
-5.044408542e-15
-5.18726079e-15
-5.549920975e-15
-6.464348275e-15
-8.761191965e-15
-1.451716973e-14
-2.892052772e-14
-6.49243865e-14
-1.548474644e-13
-3.792762878e-13
-9.390249396e-13
-2.334161607e-12
-5.809006422e-12
-1.445797191e-11
-3.596604861e-11
-8.683384575e-11
-2.064312202e-10
-4.879340752e-10
-1.152628115e-09
-2.726374543e-09
-6.469364823e-09
-1.53758004e-08
-3.638335257e-08
-8.488866512e-08
-1.902844048e-07
-4.124436818e-07
-1.105310754e-06
-2.770794359e-06
-6.179226132e-06
-1.188282753e-05
-1.963673841e-05
-2.974956854e-05
-4.193717081e-05
-5.500892694e-05
-6.798317547e-05
-8.026469485e-05
-9.117345261e-05
-0.0001016807535
-0.0001103394735
-0.0001163482149
-0.0001202873766
-0.000122714367
-0.0001242048778
-0.0001250494238
-0.0001254527282
-0.0001255674607
-0.0001254868754
-0.0001253149709
-0.0001251008339
-0.0001248738974
-0.0001246445747
-0.0001244230572
-0.0001242128692
-0.0001240156922
-0.0001238331792
-0.0001236660746
-0.0001235145513
-0.0001233782791
-0.0001232566192
-0.0001231488009
-0.0001230539732
-0.0001229711409
-0.0001228995867
-0.0001228391589
-0.0001227878122
-0.0001227444862
-0.000122708511
-0.0001226816243
-0.0001226603344
-0.000122644222
-0.0001226357276
-0.0001226303502
-0.0001226306893
-0.0001226348699
-0.0001226423147
-0.0001226540715
-0.0001226674455
-0.0001226849696
-0.0001227035397
-0.0001227252414
-0.0001227483644
-0.0001227727884
-0.0001227999937
-0.0001228257874
-0.0001228569686
-0.0001228866187
-0.0001229176243
-0.000122950482
-0.0001229818355
-0.0001230159744
-0.0001230502613
-0.0001230830906
-0.0001231184948
-0.0001231536381
-0.0001231873888
-0.0001232229133
-0.0001232593673
-0.0001232944732
-0.000123328768
-0.0001233662541
-0.0001234024394
-0.0001234373904
-0.0001234723869
-0.000123509215
-0.0001235448547
-0.0001235793617
-0.0001236131414
-0.0001236492706
-0.0001236843018
-0.0001237182877
-0.000123751275
-0.0001237850975
-0.0001238201309
-0.0001238541781
-0.0001238872763
-0.0001239194645
-0.0001239516378
-0.0001239851568
-0.0001240177932
-0.000124049578
-0.0001240805435
-0.0001241107235
-0.0001241413412
-0.0001241723831
-0.0001242026725
-0.000124232234
-0.0001242610929
-0.0001242892758
-0.0001243168529
-0.0001243451675
-0.0001243728519
-0.0001243999247
-0.0001244264048
-0.0001244523118
-0.0001244776663
-0.00012450249
-0.0001245274133
-0.0001245520196
-0.000124576132
-0.0001245997638
-0.0001246229284
-0.0001246456399
-0.0001246679131
-0.0001246897639
-0.0001247112907
-0.0001247324866
-0.0001247532964
-0.0001247737288
-0.0001247937925
-0.0001248134966
-0.0001248328506
-0.0001248518647
-0.00012487055
-0.0001248889387
-0.0001249070913
-0.0001249249431
-0.0001249424995
-0.000124959766
-0.0001249767485
-0.0001249934529
-0.0001250098856
-0.0001250260534
-0.0001250419637
-0.0001250576245
-0.0001250729612
-0.0001250879684
-0.0001251027491
-0.0001251173068
-0.0001251316452
-0.0001251457678
-0.0001251596786
-0.0001251733815
-0.0001251868808
-0.0001252001809
-0.0001252132867
-0.0001252262035
-0.0001252389373
-0.0001252512257
-0.0001252633137
-0.000125275235
-0.0001252869916
-0.0001252985854
-0.0001253100183
-0.0001253212925
-0.0001253324099
-0.0001253433726
-0.000125354183
-0.0001253648434
-0.0001253753564
-0.000125385725
-0.0001253959523
-0.000125406034
-0.0001254147407
-0.0001254233331
-0.0001254318123
-0.0001254401788
-0.0001254484336
-0.0001254565774
-0.0001254646111
-0.0001254725356
-0.0001254803519
-0.0001254880608
-0.0001254956636
-0.0001255031614
-0.0001255105556
-0.0001255178477
-0.0001255250395
-0.000125532133
-0.0001255391307
-0.0001255460357
-0.0001255488953
-0.0001255508874
-0.0001255528536
-0.0001255547941
-0.0001255567086
-0.0001255585973
-0.00012556046
-0.0001255622968
-0.0001255641077
-0.0001255658926
-0.0001255676516
-0.0001255693847
-0.0001255710921
-0.0001255727736
-0.0001255744295
-0.0001255760598
-0.0001255776647
-0.0001255792443
-0.0001255807988
-0.0001255823283
-0.0001255838332
-0.0001255853137
-0.0001255867702
-0.0001255881846
-0.0001255895488
-0.0001255908903
-0.0001255922095
-0.0001255935063
-0.000125594781
-0.0001255960338
-0.0001255972649
-0.0001255984743
-0.0001255996625
-0.0001256008295
-0.0001256019757
-0.0001256031013
-0.0001256042064
-0.0001256052915
-0.0001256063568
-0.0001256074025
-0.000125608429
-0.0001256094365
-0.0001256104255
-0.0001256113962
-0.000125612349
-0.0001256132843
-0.0001256142025
-0.0001256151039
-0.0001256159889
-0.0001256168581
-0.0001256177118
-0.0001256185505
-0.0001256193748
-0.0001256201851
-0.0001256209822
-0.0001256217667
-0.0001256225389
-0.0001256232994
-0.0001256240486
-0.0001256247869
-0.0001256255148
-0.0001256262328
-0.0001256269414
-0.0001256276412
-0.0001256283325
-0.0001256290159
-0.0001256296919
-0.0001256303609
-0.0001256310236
-0.0001256316804
-0.0001256323318
-0.0001256329783
-0.0001256336205
-0.0001256342589
-0.000125634894
-0.0001256355264
-0.0001256361564
-0.0001256367848
-0.0001256374119
-0.0001256380383
-0.0001256386645
-0.000125639291
-0.0001256399183
-0.000125640547
-0.0001256411775
-0.0001256418104
-0.0001256424462
-0.0001256430853
-0.0001256437284
-0.0001256443759
-0.0001256450284
-0.0001256456864
-0.0001256463505
-0.000125647021
-0.0001256476983
-0.0001256483826
-0.0001256490743
-0.0001256497737
-0.000125650481
-0.0001256511967
-0.0001256519208
-0.0001256526536
-0.0001256533954
-0.0001256541464
-0.0001256549068
-0.0001256556767
-0.0001256564564
-0.0001256572458
-0.0001256580452
-0.0001256588546
-0.0001256596742
-0.0001256605039
-0.0001256613438
-0.000125662194
-0.0001256630545
-0.0001256639251
-0.000125664806
-0.000125665697
-0.0001256665981
-0.0001256675092
-0.0001256684303
-0.0001256693612
-0.0001256703017
-0.0001256712519
-0.0001256722114
-0.0001256731803
-0.0001256741583
-0.0001256751453
-0.0001256761419
-0.0001256771471
-0.0001256781604
-0.0001256791816
-0.0001256802102
-0.0001256812459
-0.0001256822883
-0.000125683337
-0.0001256843915
-0.0001256854515
-0.0001256865164
-0.0001256875859
-0.0001256886594
-0.0001256897365
-0.0001256908168
-0.0001256918996
-0.0001256929845
-0.000125694071
-0.0001256951587
-0.0001256962468
-0.000125697335
-0.0001256984227
-0.0001256995094
-0.0001257005945
-0.0001257016776
-0.0001257027579
-0.0001257038351
-0.0001257049086
-0.0001257059778
-0.0001257070423
-0.0001257081014
-0.0001257091546
-0.0001257102015
-0.0001257112415
-0.0001257122741
-0.0001257132987
-0.0001257143149
-0.0001257153222
-0.0001257163201
-0.0001257173081
-0.0001257182858
-0.0001257192527
-0.0001257202083
-0.0001257211522
-0.000125722084
-0.0001257230032
-0.0001257239096
-0.0001257248026
-0.0001257256819
-0.0001257265472
-0.0001257273981
-0.0001257282343
-0.0001257290555
-0.0001257298613
-0.0001257306516
-0.0001257314259
-0.0001257321842
-0.0001257329261
-0.0001257336514
-0.00012573436
-0.0001257350516
-0.0001257357261
-0.0001257363834
-0.0001257370233
-0.0001257376458
-0.0001257382507
-0.0001257388379
-0.0001257394074
-0.0001257399593
-0.0001257404934
-0.0001257410097
-0.0001257415083
-0.0001257419893
-0.0001257424526
-0.0001257428983
-0.0001257433266
-0.0001257437376
-0.0001257441313
-0.000125744508
-0.0001257448677
-0.0001257452107
-0.0001257455371
-0.0001257458472
-0.0001257461411
-0.0001257464192
-0.0001257466817
-0.0001257469289
-0.0001257471609
-0.0001257473782
-0.0001257475811
-0.0001257477698
-0.0001257479447
-0.0001257481062
-0.0001257482547
-0.0001257483904
-0.0001257485138
-0.0001257486252
-0.0001257487252
-0.000125748814
-0.000125748892
-0.0001257489598
-0.0001257490177
-0.0001257490662
-0.0001257491055
-0.0001257491364
-0.0001257491592
-0.0001257491755
-0.0001257491852
-0.0001257491877
-0.0001257491837
-0.0001257491733
-0.000125749157
-0.0001257491351
-0.0001257491078
-0.0001257490754
-0.0001257490381
-0.0001257489959
-0.0001257489489
-0.000125748897
-0.0001257488401
-0.0001257487777
-0.0001257487095
-0.0001257486345
-0.0001257485517
-0.0001257484595
-0.0001257483559
-0.0001257482378
-0.0001257481014
-0.0001257479413
-0.0001257477065
-0.0001257474423
-0.0001257471755
-0.0001257469066
-0.0001257466361
-0.0001257463645
-0.0001257460922
-0.0001257458199
-0.0001257455482
-0.0001257452773
-0.0001257450079
-0.0001257447407
-0.0001257444761
-0.0001257442147
-0.0001257439571
-0.0001257437039
-0.0001257434556
-0.0001257432128
-0.0001257429761
-0.0001257427461
-0.0001257425233
-0.0001257423083
-0.0001257421018
-0.0001257419044
-0.0001257417165
-0.0001257415389
-0.0001257413721
-0.0001257412168
-0.0001257410735
-0.0001257409428
-0.0001257408255
-0.000125740722
-0.000125740633
-0.0001257405591
-0.000125740501
-0.0001257404592
-0.0001257404345
-0.0001257404277
-0.000125740438
-0.0001257404686
-0.0001257405194
-0.0001257405903
-0.0001257406821
-0.0001257407954
-0.0001257409307
-0.0001257410888
-0.0001257412703
-0.0001257414758
-0.000125741706
-0.0001257419614
-0.0001257422428
-0.0001257425507
-0.0001257428858
-0.0001257432486
-0.0001257436398
-0.00012574406
-0.0001257445097
-0.0001257449894
-0.0001257454997
-0.000125746041
-0.0001257466138
-0.0001257472184
-0.0001257478552
-0.0001257485243
-0.0001257492258
-0.0001257499598
-0.000125750726
-0.0001257515241
-0.0001257523534
-0.000125753213
-0.0001257541017
-0.0001257550177
-0.0001257559589
-0.0001257569222
-0.000125757904
-0.0001257588997
-0.0001257599033
-0.0001257609077
-0.0001257619038
-0.0001257628804
-0.000125763824
-0.0001257647178
-0.0001257655413
-0.0001257662697
-0.0001257668727
-0.0001257673137
-0.0001257675488
)
;

boundaryField
{
    inlet
    {
        type            calculated;
        value           uniform -4.958910793e-15;
    }
    outlet
    {
        type            calculated;
        value           uniform -0.0001257675488;
    }
    upperWall
    {
        type            empty;
    }
    lowerWall
    {
        type            empty;
    }
    frontAndBack
    {
        type            empty;
    }
}


// ************************************************************************* //
