/*--------------------------------*- C++ -*----------------------------------*\
  =========                 |
  \\      /  F ield         | OpenFOAM: The Open Source CFD Toolbox
   \\    /   O peration     | Website:  https://openfoam.org
    \\  /    A nd           | Version:  9
     \\/     M anipulation  |
\*---------------------------------------------------------------------------*/
FoamFile
{
    format      ascii;
    class       volScalarField;
    location    "0.019";
    object      dH;
}
// * * * * * * * * * * * * * * * * * * * * * * * * * * * * * * * * * * * * * //

dimensions      [0 2 -2 0 0 0 0];

internalField   nonuniform List<scalar> 
1000
(
38.5882978
38.5882978
38.5882978
38.5882978
38.5882978
38.5882978
38.5882978
38.5882978
38.5882978
38.5882978
38.5882978
38.5882978
38.5882978
38.5882978
38.5882978
38.5882978
38.5882978
38.5882978
38.5882978
38.5882978
38.5882978
38.5882978
38.5882978
38.5882978
38.5882978
38.5882978
38.5882978
38.5882978
38.5882978
38.5882978
38.5882978
38.5882978
38.5882978
38.5882978
38.5882978
38.5882978
38.5882978
38.5882978
38.5882978
38.5882978
38.5882978
38.5882978
38.5882978
38.5882978
38.5882978
38.5882978
38.5882978
38.5882978
38.5882978
38.5882978
38.5882978
38.5882978
38.5882978
38.5882978
38.5882978
38.5882978
38.5882978
38.5882978
38.5882978
38.5882978
38.5882978
38.5882978
38.5882978
38.5882978
38.5882978
38.5882978
38.5882978
38.5882978
38.5882978
38.5882978
38.5882978
38.5882978
38.5882978
38.5882978
38.5882978
38.5882978
38.5882978
38.5882978
38.5882978
38.5882978
38.5882978
38.5882978
38.5882978
38.5882978
38.5882978
38.5882978
38.5882978
38.5882978
38.5882978
38.5882978
38.5882978
38.5882978
38.5882978
38.5882978
38.5882978
38.5882978
38.5882978
38.5882978
38.5882978
38.5882978
38.5882978
38.5882978
38.5882978
38.5882978
38.5882978
38.5882978
38.5882978
38.5882978
38.5882978
38.5882978
38.5882978
38.5882978
38.5882978
38.5882978
38.5882978
38.5882978
38.5882978
38.5882978
38.5882978
38.5882978
38.5882978
38.5882978
38.5882978
38.5882978
38.5882978
38.5882978
38.5882978
38.5882978
38.5882978
38.5882978
38.5882978
38.5882978
38.5882978
38.5882978
38.5882978
38.5882978
38.5882978
38.5882978
38.5882978
38.5882978
38.5882978
38.5882978
38.5882978
38.5882978
38.5882978
38.5882978
38.5882978
38.5882978
38.5882978
38.5882978
38.5882978
38.5882978
38.5882978
38.5882978
38.5882978
38.5882978
38.5882978
38.5882978
38.5882978
38.5882978
38.5882978
38.5882978
38.5882978
38.5882978
38.5882978
38.5882978
38.5882978
38.5882978
38.5882978
38.5882978
38.5882978
38.5882978
38.5882978
38.5882978
38.5882978
38.5882978
38.5882978
38.5882978
38.5882978
38.5882978
38.5882978
38.5882978
38.5882978
38.5882978
38.5882978
38.5882978
38.5882978
38.5882978
38.5882978
38.5882978
38.5882978
38.5882978
38.5882978
38.5882978
38.5882978
38.5882978
38.5882978
38.5882978
38.5882978
38.5882978
38.5882978
38.5882978
38.5882978
38.5882978
38.5882978
38.5882978
38.5882978
38.5882978
38.5882978
38.5882978
38.5882978
38.5882978
38.5882978
38.5882978
38.5882978
38.5882978
38.5882978
38.5882978
38.5882978
38.5882978
38.5882978
38.5882978
38.5882978
38.5882978
38.5882978
38.5882978
38.5882978
38.5882978
38.5882978
38.5882978
38.5882978
38.5882978
38.5882978
38.5882978
38.5882978
38.5882978
38.5882978
38.5882978
38.5882978
38.5882978
38.5882978
38.5882978
38.5882978
38.5882978
38.5882978
38.5882978
38.5882978
38.5882978
38.5882978
38.5882978
38.5882978
38.5882978
38.5882978
38.5882978
38.5882978
38.5882978
38.5882978
38.5882978
38.5882978
38.5882978
38.5882978
38.5882978
38.5882978
38.5882978
38.5882978
38.5882978
38.5882978
38.5882978
38.5882978
38.5882978
38.5882978
38.5882978
38.5882978
38.5882978
38.5882978
38.5882978
38.5882978
38.5882978
38.5882978
38.5882978
38.5882978
38.5882978
38.5882978
38.5882978
38.5882978
38.5882978
38.5882978
38.5882978
38.5882978
38.5882978
38.5882978
38.5882978
38.5882978
38.5882978
38.5882978
38.5882978
38.5882978
38.5882978
38.5882978
38.5882978
38.5882978
38.5882978
38.5882978
38.5882978
38.5882978
38.5882978
38.5882978
38.5882978
38.5882978
38.5882978
38.5882978
38.5882978
38.5882978
38.5882978
38.5882978
38.5882978
38.5882978
38.5882978
38.5882978
38.5882978
38.5882978
38.5882978
38.5882978
38.5882978
38.5882978
38.5882978
38.5882978
38.5882978
38.5882978
38.5882978
38.5882978
38.5882978
38.5882978
38.5882978
38.5882978
38.5882978
38.5882978
38.5882978
38.5882978
38.5882978
38.5882978
38.5882978
38.5882978
38.5882978
38.5882978
38.5882978
38.5882978
38.5882978
38.5882978
38.5882978
38.5882978
38.5882978
38.5882978
38.5882978
38.5882978
38.5882978
38.5882978
38.5882978
38.5882978
38.5882978
38.5882978
38.5882978
38.5882978
38.5882978
38.5882978
38.5882978
38.5882978
38.5882978
38.5882978
38.5882978
38.5882978
38.5882978
38.5882978
38.5882978
38.5882978
38.5882978
38.5882978
38.5882978
38.5882978
38.5882978
38.5882978
38.5882978
38.5882978
38.5882978
38.5882978
38.5882978
38.5882978
38.5882978
38.5882978
38.5882978
38.5882978
38.5882978
38.5882978
38.5882978
38.5882978
38.5882978
38.5882978
38.5882978
38.5882978
38.5882978
38.5882978
38.5882978
38.5882978
38.5882978
38.5882978
38.5882978
38.5882978
38.5882978
38.5882978
38.5882978
38.5882978
38.5882978
38.5882978
38.5882978
38.5882978
38.5882978
38.58829781
38.58829781
38.58829781
38.58829782
38.58829783
38.58829784
38.58829786
38.58829788
38.58829791
38.58829796
38.58829801
38.58829809
38.5882982
38.58829834
38.58829853
38.58829879
38.58829915
38.58829963
38.58830028
38.58830117
38.58830236
38.58830399
38.58830618
38.58830915
38.58831317
38.58831859
38.58832585
38.58833552
38.58834816
38.58836414
38.58838291
38.58840113
38.58840774
38.58837148
38.58820922
38.58770656
38.58631885
38.58267381
38.57332965
38.54967689
38.49021318
38.34129017
37.96914657
37.04045983
34.72493315
29.23125786
16.26213628
-14.43118028
-87.41632733
-261.8769213
-681.3783121
-1694.835942
-4146.883261
-10038.41339
-23857.2939
-54597.2677
-117248.9752
-225155.0558
-380168.287
-565662.0452
-759536.875
-946924.5434
-1115064.802
-1253501.594
-1359135.507
-1435982.59
-1491000.818
-1531073.601
-1561190.565
-1584516.595
-1602992.573
-1617947.731
-1630280.302
-1640602.226
-1649345.147
-1656821.267
-1663259.581
-1668848.102
-1673721.958
-1678001.653
-1681772.616
-1685116.406
-1688093.956
-1690754.045
-1693141.999
-1695294.367
-1697241.503
-1699009.293
-1700619.858
-1702092.143
-1703442.399
-1704684.601
-1705830.389
-1706889.364
-1707871.573
-1708784.775
-1709635.501
-1710428.127
-1711169.636
-1711864.166
-1712514.172
-1713125.131
-1713698.649
-1714238.203
-1714746.216
-1715224.41
-1715675.592
-1716100.702
-1716502.303
-1716881.268
-1717239.444
-1717578.182
-1717898.263
-1718201.936
-1718488.676
-1718761.082
-1719019.422
-1719264.477
-1719497.848
-1719719.443
-1719930.555
-1720132.216
-1720324.263
-1720507.877
-1720683.882
-1720852.287
-1721013.733
-1721169.059
-1721318.608
-1721462.142
-1721600.733
-1721734.686
-1721864.099
-1721988.961
-1722110
-1722227.421
-1722341.361
-1722451.538
-1722558.639
-1722662.797
-1722764.139
-1722862.565
-1722958.142
-1723051.232
-1723141.913
-1723230.261
-1723316.248
-1723399.772
-1723481.194
-1723560.565
-1723637.945
-1723713.399
-1723786.813
-1723858.258
-1723927.963
-1723995.976
-1724062.348
-1724127.137
-1724190.397
-1724251.912
-1724312.027
-1724370.787
-1724428.238
-1724484.432
-1724539.421
-1724593.262
-1724645.824
-1724697.289
-1724747.756
-1724797.263
-1724845.85
-1724893.555
-1724940.419
-1724986.486
-1725031.684
-1725076.076
-1725119.778
-1725162.813
-1725205.205
-1725246.978
-1725288.153
-1725328.755
-1725368.808
-1725408.296
-1725447.146
-1725485.509
-1725523.396
-1725560.817
-1725597.78
-1725634.295
-1725670.371
-1725706.019
-1725741.249
-1725776.074
-1725810.44
-1725844.345
-1725877.875
-1725911.032
-1725943.819
-1725976.239
-1726008.296
-1726039.995
-1726071.34
-1726102.336
-1726132.989
-1726163.308
-1726193.301
-1726222.871
-1726252.117
-1726281.053
-1726309.681
-1726338.002
-1726366.017
-1726393.73
-1726421.141
-1726448.252
-1726475.068
-1726501.59
-1726527.821
-1726553.766
-1726579.429
-1726604.816
-1726629.839
-1726654.595
-1726679.082
-1726703.301
-1726727.252
-1726750.933
-1726774.346
-1726797.489
-1726820.363
-1726842.967
-1726865.302
-1726887.368
-1726909.166
-1726930.696
-1726951.959
-1726972.958
-1726993.695
-1727014.173
-1727034.335
-1727054.228
-1727073.864
-1727093.242
-1727112.361
-1727131.222
-1727149.823
-1727168.166
-1727186.249
-1727204.074
-1727221.639
-1727238.947
-1727255.996
-1727272.788
-1727289.324
-1727305.605
-1727321.631
-1727337.405
-1727352.928
-1727368.202
-1727383.23
-1727398.015
-1727412.559
-1727426.847
-1727440.872
-1727454.667
-1727468.232
-1727481.571
-1727494.684
-1727507.573
-1727520.241
-1727532.69
-1727544.921
-1727556.938
-1727568.742
-1727580.336
-1727591.723
-1727602.906
-1727613.887
-1727624.67
-1727635.258
-1727645.653
-1727655.859
-1727665.881
-1727675.72
-1727685.382
-1727694.87
-1727704.188
-1727713.34
-1727722.331
-1727731.166
-1727739.849
-1727748.386
-1727756.782
-1727765.043
-1727773.141
-1727781.114
-1727788.968
-1727796.709
-1727804.339
-1727811.866
-1727819.292
-1727826.624
-1727833.867
-1727841.025
-1727848.103
-1727855.106
-1727862.04
-1727868.91
-1727875.72
-1727882.477
-1727889.184
-1727895.848
-1727902.474
-1727909.067
-1727915.631
-1727922.174
-1727928.698
-1727935.21
-1727941.716
-1727948.219
-1727954.725
-1727961.239
-1727967.767
-1727974.314
-1727980.883
-1727987.482
-1727994.115
-1728000.786
-1728007.502
-1728014.268
-1728021.076
-1728027.923
-1728034.834
-1728041.813
-1728048.861
-1728055.984
-1728063.183
-1728070.462
-1728077.824
-1728085.269
-1728092.801
-1728100.422
-1728108.135
-1728115.941
-1728123.842
-1728131.839
-1728139.934
-1728148.127
-1728156.42
-1728164.812
-1728173.306
-1728181.9
-1728190.596
-1728199.393
-1728208.29
-1728217.288
-1728226.387
-1728235.584
-1728244.88
-1728254.273
-1728263.763
-1728273.348
-1728283.026
-1728292.797
-1728302.658
-1728312.609
-1728322.647
-1728332.726
-1728342.886
-1728353.127
-1728363.444
-1728373.833
-1728384.292
-1728394.815
-1728405.399
-1728416.039
-1728426.732
-1728437.472
-1728448.255
-1728459.077
-1728469.932
-1728480.816
-1728491.723
-1728502.649
-1728513.589
-1728524.537
-1728535.488
-1728546.437
-1728557.378
-1728568.307
-1728579.217
-1728590.104
-1728600.962
-1728611.786
-1728622.57
-1728633.309
-1728643.998
-1728654.63
-1728665.202
-1728675.708
-1728686.142
-1728696.499
-1728706.775
-1728716.965
-1728727.063
-1728737.064
-1728746.965
-1728756.759
-1728766.444
-1728776.014
-1728785.465
-1728794.792
-1728803.993
-1728813.062
-1728821.996
-1728830.792
-1728839.445
-1728847.953
-1728856.312
-1728864.519
-1728872.572
-1728880.467
-1728888.202
-1728895.774
-1728903.182
-1728910.423
-1728917.496
-1728924.398
-1728931.128
-1728937.685
-1728944.067
-1728950.274
-1728956.304
-1728962.158
-1728967.835
-1728973.333
-1728978.654
-1728983.798
-1728988.764
-1728993.553
-1728998.166
-1729002.604
-1729006.867
-1729010.957
-1729014.875
-1729018.622
-1729022.201
-1729025.613
-1729028.86
-1729031.944
-1729034.867
-1729037.633
-1729040.244
-1729042.701
-1729045.01
-1729047.171
-1729049.19
-1729051.068
-1729052.809
-1729054.418
-1729055.897
-1729057.25
-1729058.482
-1729059.595
-1729060.595
-1729061.486
-1729062.27
-1729062.953
-1729063.539
-1729064.033
-1729064.436
-1729064.758
-1729065
-1729065.179
-1729065.295
-1729065.341
-1729065.322
-1729065.242
-1729065.104
-1729064.912
-1729064.669
-1729064.376
-1729064.034
-1729063.646
-1729063.212
-1729062.73
-1729062.198
-1729061.613
-1729060.97
-1729060.26
-1729059.471
-1729058.589
-1729057.591
-1729056.448
-1729055.117
-1729053.545
-1729051.212
-1729048.581
-1729045.923
-1729043.244
-1729040.55
-1729037.844
-1729035.132
-1729032.419
-1729029.713
-1729027.014
-1729024.331
-1729021.669
-1729019.033
-1729016.429
-1729013.863
-1729011.341
-1729008.867
-1729006.449
-1729004.091
-1729001.799
-1728999.58
-1728997.439
-1728995.382
-1728993.415
-1728991.543
-1728989.774
-1728988.113
-1728986.565
-1728985.138
-1728983.836
-1728982.667
-1728981.636
-1728980.75
-1728980.014
-1728979.435
-1728979.019
-1728978.773
-1728978.705
-1728978.808
-1728979.113
-1728979.618
-1728980.325
-1728981.239
-1728982.367
-1728983.716
-1728985.291
-1728987.098
-1728989.146
-1728991.438
-1728993.983
-1728996.786
-1728999.853
-1729003.191
-1729006.806
-1729010.703
-1729014.888
-1729019.368
-1729024.146
-1729029.23
-1729034.622
-1729040.328
-1729046.351
-1729052.694
-1729059.359
-1729066.347
-1729073.659
-1729081.291
-1729089.241
-1729097.503
-1729106.066
-1729114.919
-1729124.044
-1729133.419
-1729143.015
-1729152.795
-1729162.713
-1729172.711
-1729182.716
-1729192.639
-1729202.368
-1729211.767
-1729220.671
-1729228.874
-1729236.13
-1729242.137
-1729246.53
-1729248.872
)
;

boundaryField
{
    inlet
    {
        type            calculated;
        value           uniform 38.5882978;
    }
    outlet
    {
        type            calculated;
        value           uniform -1729248.872;
    }
    upperWall
    {
        type            empty;
    }
    lowerWall
    {
        type            empty;
    }
    frontAndBack
    {
        type            empty;
    }
}


// ************************************************************************* //
