/*--------------------------------*- C++ -*----------------------------------*\
  =========                 |
  \\      /  F ield         | OpenFOAM: The Open Source CFD Toolbox
   \\    /   O peration     | Website:  https://openfoam.org
    \\  /    A nd           | Version:  9
     \\/     M anipulation  |
\*---------------------------------------------------------------------------*/
FoamFile
{
    format      ascii;
    class       volScalarField;
    location    "0.019";
    object      dZC;
}
// * * * * * * * * * * * * * * * * * * * * * * * * * * * * * * * * * * * * * //

dimensions      [1 -1 -1 0 0 0 0];

internalField   nonuniform List<scalar> 
1000
(
-6.024147583e-06
-6.024147583e-06
-6.024147583e-06
-6.024147583e-06
-6.024147583e-06
-6.024147583e-06
-6.024147583e-06
-6.024147583e-06
-6.024147583e-06
-6.024147583e-06
-6.024147583e-06
-6.024147583e-06
-6.024147583e-06
-6.024147583e-06
-6.024147583e-06
-6.024147583e-06
-6.024147583e-06
-6.024147583e-06
-6.024147583e-06
-6.024147583e-06
-6.024147583e-06
-6.024147583e-06
-6.024147583e-06
-6.024147583e-06
-6.024147583e-06
-6.024147583e-06
-6.024147583e-06
-6.024147583e-06
-6.024147583e-06
-6.024147583e-06
-6.024147583e-06
-6.024147583e-06
-6.024147583e-06
-6.024147583e-06
-6.024147583e-06
-6.024147583e-06
-6.024147583e-06
-6.024147583e-06
-6.024147583e-06
-6.024147583e-06
-6.024147583e-06
-6.024147583e-06
-6.024147583e-06
-6.024147583e-06
-6.024147583e-06
-6.024147583e-06
-6.024147583e-06
-6.024147583e-06
-6.024147583e-06
-6.024147583e-06
-6.024147583e-06
-6.024147583e-06
-6.024147583e-06
-6.024147583e-06
-6.024147583e-06
-6.024147583e-06
-6.024147583e-06
-6.024147583e-06
-6.024147583e-06
-6.024147583e-06
-6.024147583e-06
-6.024147583e-06
-6.024147583e-06
-6.024147583e-06
-6.024147583e-06
-6.024147583e-06
-6.024147583e-06
-6.024147583e-06
-6.024147583e-06
-6.024147583e-06
-6.024147583e-06
-6.024147583e-06
-6.024147583e-06
-6.024147583e-06
-6.024147583e-06
-6.024147583e-06
-6.024147583e-06
-6.024147583e-06
-6.024147583e-06
-6.024147583e-06
-6.024147583e-06
-6.024147583e-06
-6.024147583e-06
-6.024147583e-06
-6.024147583e-06
-6.024147583e-06
-6.024147583e-06
-6.024147583e-06
-6.024147583e-06
-6.024147583e-06
-6.024147583e-06
-6.024147583e-06
-6.024147583e-06
-6.024147583e-06
-6.024147583e-06
-6.024147583e-06
-6.024147583e-06
-6.024147583e-06
-6.024147583e-06
-6.024147583e-06
-6.024147583e-06
-6.024147583e-06
-6.024147583e-06
-6.024147583e-06
-6.024147583e-06
-6.024147583e-06
-6.024147583e-06
-6.024147583e-06
-6.024147583e-06
-6.024147583e-06
-6.024147583e-06
-6.024147583e-06
-6.024147583e-06
-6.024147583e-06
-6.024147583e-06
-6.024147583e-06
-6.024147583e-06
-6.024147583e-06
-6.024147583e-06
-6.024147583e-06
-6.024147583e-06
-6.024147583e-06
-6.024147583e-06
-6.024147583e-06
-6.024147583e-06
-6.024147583e-06
-6.024147583e-06
-6.024147583e-06
-6.024147583e-06
-6.024147583e-06
-6.024147583e-06
-6.024147583e-06
-6.024147583e-06
-6.024147583e-06
-6.024147583e-06
-6.024147583e-06
-6.024147583e-06
-6.024147583e-06
-6.024147583e-06
-6.024147583e-06
-6.024147583e-06
-6.024147583e-06
-6.024147583e-06
-6.024147583e-06
-6.024147583e-06
-6.024147583e-06
-6.024147583e-06
-6.024147583e-06
-6.024147583e-06
-6.024147583e-06
-6.024147583e-06
-6.024147583e-06
-6.024147583e-06
-6.024147583e-06
-6.024147583e-06
-6.024147583e-06
-6.024147583e-06
-6.024147583e-06
-6.024147583e-06
-6.024147583e-06
-6.024147583e-06
-6.024147583e-06
-6.024147583e-06
-6.024147583e-06
-6.024147583e-06
-6.024147583e-06
-6.024147583e-06
-6.024147583e-06
-6.024147583e-06
-6.024147583e-06
-6.024147583e-06
-6.024147583e-06
-6.024147583e-06
-6.024147583e-06
-6.024147583e-06
-6.024147583e-06
-6.024147583e-06
-6.024147583e-06
-6.024147583e-06
-6.024147583e-06
-6.024147583e-06
-6.024147583e-06
-6.024147583e-06
-6.024147583e-06
-6.024147583e-06
-6.024147583e-06
-6.024147583e-06
-6.024147583e-06
-6.024147583e-06
-6.024147583e-06
-6.024147583e-06
-6.024147583e-06
-6.024147583e-06
-6.024147583e-06
-6.024147583e-06
-6.024147583e-06
-6.024147583e-06
-6.024147583e-06
-6.024147583e-06
-6.024147583e-06
-6.024147583e-06
-6.024147583e-06
-6.024147583e-06
-6.024147583e-06
-6.024147583e-06
-6.024147583e-06
-6.024147583e-06
-6.024147583e-06
-6.024147583e-06
-6.024147583e-06
-6.024147583e-06
-6.024147583e-06
-6.024147583e-06
-6.024147583e-06
-6.024147583e-06
-6.024147583e-06
-6.024147583e-06
-6.024147583e-06
-6.024147583e-06
-6.024147583e-06
-6.024147583e-06
-6.024147583e-06
-6.024147583e-06
-6.024147583e-06
-6.024147583e-06
-6.024147583e-06
-6.024147583e-06
-6.024147583e-06
-6.024147583e-06
-6.024147583e-06
-6.024147583e-06
-6.024147583e-06
-6.024147583e-06
-6.024147583e-06
-6.024147583e-06
-6.024147583e-06
-6.024147583e-06
-6.024147583e-06
-6.024147583e-06
-6.024147583e-06
-6.024147583e-06
-6.024147583e-06
-6.024147583e-06
-6.024147583e-06
-6.024147583e-06
-6.024147583e-06
-6.024147583e-06
-6.024147583e-06
-6.024147583e-06
-6.024147583e-06
-6.024147583e-06
-6.024147583e-06
-6.024147583e-06
-6.024147583e-06
-6.024147583e-06
-6.024147583e-06
-6.024147583e-06
-6.024147583e-06
-6.024147583e-06
-6.024147583e-06
-6.024147583e-06
-6.024147583e-06
-6.024147583e-06
-6.024147583e-06
-6.024147583e-06
-6.024147583e-06
-6.024147583e-06
-6.024147583e-06
-6.024147583e-06
-6.024147583e-06
-6.024147583e-06
-6.024147583e-06
-6.024147583e-06
-6.024147583e-06
-6.024147583e-06
-6.024147583e-06
-6.024147583e-06
-6.024147583e-06
-6.024147583e-06
-6.024147583e-06
-6.024147583e-06
-6.024147583e-06
-6.024147583e-06
-6.024147583e-06
-6.024147583e-06
-6.024147583e-06
-6.024147583e-06
-6.024147583e-06
-6.024147583e-06
-6.024147583e-06
-6.024147583e-06
-6.024147583e-06
-6.024147583e-06
-6.024147583e-06
-6.024147583e-06
-6.024147583e-06
-6.024147583e-06
-6.024147583e-06
-6.024147583e-06
-6.024147583e-06
-6.024147583e-06
-6.024147583e-06
-6.024147583e-06
-6.024147583e-06
-6.024147583e-06
-6.024147583e-06
-6.024147583e-06
-6.024147583e-06
-6.024147583e-06
-6.024147583e-06
-6.024147583e-06
-6.024147583e-06
-6.024147583e-06
-6.024147583e-06
-6.024147583e-06
-6.024147583e-06
-6.024147583e-06
-6.024147583e-06
-6.024147583e-06
-6.024147583e-06
-6.024147583e-06
-6.024147583e-06
-6.024147583e-06
-6.024147583e-06
-6.024147583e-06
-6.024147583e-06
-6.024147583e-06
-6.024147583e-06
-6.024147583e-06
-6.024147583e-06
-6.024147583e-06
-6.024147583e-06
-6.024147583e-06
-6.024147583e-06
-6.024147583e-06
-6.024147583e-06
-6.024147583e-06
-6.024147583e-06
-6.024147583e-06
-6.024147583e-06
-6.024147583e-06
-6.024147583e-06
-6.024147583e-06
-6.024147583e-06
-6.024147583e-06
-6.024147583e-06
-6.024147583e-06
-6.024147583e-06
-6.024147583e-06
-6.024147583e-06
-6.024147583e-06
-6.024147583e-06
-6.024147583e-06
-6.024147583e-06
-6.024147583e-06
-6.024147583e-06
-6.024147583e-06
-6.024147583e-06
-6.024147583e-06
-6.024147583e-06
-6.024147583e-06
-6.024147583e-06
-6.024147583e-06
-6.024147583e-06
-6.024147583e-06
-6.024147583e-06
-6.024147583e-06
-6.024147583e-06
-6.024147583e-06
-6.024147583e-06
-6.024147583e-06
-6.024147583e-06
-6.024147583e-06
-6.024147583e-06
-6.024147583e-06
-6.024147583e-06
-6.024147583e-06
-6.024147583e-06
-6.024147583e-06
-6.024147583e-06
-6.024147583e-06
-6.024147583e-06
-6.024147583e-06
-6.024147583e-06
-6.024147583e-06
-6.024147583e-06
-6.024147583e-06
-6.024147583e-06
-6.024147583e-06
-6.024147583e-06
-6.024147583e-06
-6.024147583e-06
-6.024147583e-06
-6.024147583e-06
-6.024147583e-06
-6.024147583e-06
-6.024147583e-06
-6.024147583e-06
-6.024147583e-06
-6.024147583e-06
-6.024147583e-06
-6.024147583e-06
-6.024147583e-06
-6.024147583e-06
-6.024147583e-06
-6.024147583e-06
-6.024147583e-06
-6.024147583e-06
-6.024147583e-06
-6.024147583e-06
-6.024147583e-06
-6.024147583e-06
-6.024147583e-06
-6.024147582e-06
-6.024147582e-06
-6.024147581e-06
-6.02414758e-06
-6.024147579e-06
-6.024147578e-06
-6.024147575e-06
-6.024147573e-06
-6.024147569e-06
-6.024147564e-06
-6.024147556e-06
-6.024147547e-06
-6.024147534e-06
-6.024147516e-06
-6.024147492e-06
-6.02414746e-06
-6.024147415e-06
-6.024147356e-06
-6.024147275e-06
-6.024147165e-06
-6.024147016e-06
-6.024146815e-06
-6.024146542e-06
-6.024146172e-06
-6.02414567e-06
-6.02414499e-06
-6.024144068e-06
-6.024142818e-06
-6.024141125e-06
-6.02413883e-06
-6.024135719e-06
-6.024131503e-06
-6.024125788e-06
-6.024118043e-06
-6.024107547e-06
-6.024093321e-06
-6.024074041e-06
-6.024047915e-06
-6.024012512e-06
-6.023964546e-06
-6.023899573e-06
-6.023811598e-06
-6.023692566e-06
-6.023531724e-06
-6.023314906e-06
-6.02302393e-06
-6.022469901e-06
-6.021697568e-06
-6.020689903e-06
-6.019414984e-06
-6.017880893e-06
-6.015655481e-06
-6.013550205e-06
-6.012037414e-06
-6.014814425e-06
-6.029003063e-06
-6.074863384e-06
-6.202075395e-06
-6.530511502e-06
-7.199390421e-06
-8.781507055e-06
-1.146653529e-05
-1.361932413e-05
-1.583050553e-05
-1.845039554e-05
-2.142505197e-05
-2.449898218e-05
-2.732055879e-05
-2.947555476e-05
-3.064235005e-05
-3.051718772e-05
-2.921336555e-05
-2.727577954e-05
-2.516264333e-05
-2.313983292e-05
-2.131483279e-05
-1.97153722e-05
-1.832816995e-05
-1.71261539e-05
-1.60804459e-05
-1.516119567e-05
-1.43471371e-05
-1.361497708e-05
-1.295049484e-05
-1.234350159e-05
-1.178549963e-05
-1.126893208e-05
-1.07889859e-05
-1.034156361e-05
-9.923040999e-06
-9.530395293e-06
-9.161125002e-06
-8.813122303e-06
-8.484597435e-06
-8.174035597e-06
-7.879692243e-06
-7.599478378e-06
-7.333476429e-06
-7.080863735e-06
-6.8405699e-06
-6.609861679e-06
-6.390352113e-06
-6.181079479e-06
-5.979248433e-06
-5.787148326e-06
-5.602111918e-06
-5.424725166e-06
-5.254560634e-06
-5.09029648e-06
-4.932930826e-06
-4.780503922e-06
-4.634276136e-06
-4.492674323e-06
-4.356208343e-06
-4.224632324e-06
-4.096812982e-06
-3.974615176e-06
-3.854512831e-06
-3.73950879e-06
-3.627966996e-06
-3.519416139e-06
-3.415269434e-06
-3.313345095e-06
-3.214682293e-06
-3.119861899e-06
-3.026820433e-06
-2.936794964e-06
-2.850154472e-06
-2.765466247e-06
-2.682952294e-06
-2.603426044e-06
-2.526566516e-06
-2.450703305e-06
-2.377484057e-06
-2.306791884e-06
-2.23801032e-06
-2.170317787e-06
-2.104869215e-06
-2.041565943e-06
-1.980178765e-06
-1.919399116e-06
-1.860535181e-06
-1.803491384e-06
-1.748185653e-06
-1.693968926e-06
-1.640658037e-06
-1.588893233e-06
-1.538611641e-06
-1.489748469e-06
-1.441935738e-06
-1.394643637e-06
-1.348616113e-06
-1.303804533e-06
-1.260159146e-06
-1.217628494e-06
-1.175710628e-06
-1.134375937e-06
-1.09404195e-06
-1.054674282e-06
-1.01623794e-06
-9.786968939e-07
-9.41990158e-07
-9.053506363e-07
-8.695210474e-07
-8.344782258e-07
-8.001987292e-07
-7.666584835e-07
-7.338324356e-07
-7.016940206e-07
-6.697043139e-07
-6.382079082e-07
-6.073494213e-07
-5.771137851e-07
-5.474855243e-07
-5.184483581e-07
-4.899850389e-07
-4.620768254e-07
-4.343931097e-07
-4.069951124e-07
-3.801162081e-07
-3.537463018e-07
-3.278749566e-07
-3.024910661e-07
-2.77582845e-07
-2.531374418e-07
-2.291408407e-07
-2.05474516e-07
-1.818741327e-07
-1.586918835e-07
-1.359204088e-07
-1.135519993e-07
-9.157867236e-08
-6.999196132e-08
-4.878294703e-08
-2.794200274e-08
-7.458737399e-09
1.267832585e-08
3.265126548e-08
5.249503692e-08
7.201550255e-08
9.12182956e-08
1.101090867e-07
1.286936876e-07
1.469780235e-07
1.649682477e-07
1.826707519e-07
2.000923154e-07
2.17240179e-07
2.34122249e-07
2.507472594e-07
2.673999606e-07
2.838376724e-07
3.000315974e-07
3.159850214e-07
3.317012163e-07
3.47183438e-07
3.624349723e-07
3.774591524e-07
3.922594136e-07
4.068393364e-07
4.212027182e-07
4.353536566e-07
4.492966534e-07
4.630367543e-07
4.765813693e-07
4.901874681e-07
5.03601685e-07
5.16825802e-07
5.298616072e-07
5.427109372e-07
5.553756557e-07
5.678577016e-07
5.801590678e-07
5.922818695e-07
6.042283204e-07
6.160008175e-07
6.276019293e-07
6.390345206e-07
6.50301761e-07
6.614072955e-07
6.723553103e-07
6.831508017e-07
6.93799742e-07
6.958534789e-07
6.961040166e-07
6.963509384e-07
6.965943032e-07
6.968341718e-07
6.970706044e-07
6.973036628e-07
6.975334081e-07
6.97759903e-07
6.979832088e-07
6.98203389e-07
6.984205057e-07
6.986346229e-07
6.988458035e-07
6.99054113e-07
6.99259616e-07
6.994623804e-07
6.99662474e-07
6.998599691e-07
7.000549402e-07
7.002474678e-07
7.004376377e-07
7.006255461e-07
7.007324737e-07
7.007217878e-07
7.007114615e-07
7.007014983e-07
7.006919016e-07
7.006826745e-07
7.006738197e-07
7.006653396e-07
7.006572364e-07
7.006495118e-07
7.006421673e-07
7.006352038e-07
7.006286221e-07
7.006224225e-07
7.00616605e-07
7.006111691e-07
7.006061141e-07
7.006014388e-07
7.005971417e-07
7.005932209e-07
7.005896741e-07
7.005864985e-07
7.005836911e-07
7.005812484e-07
7.005791665e-07
7.005774412e-07
7.005760677e-07
7.005750411e-07
7.00574356e-07
7.005740068e-07
7.005739876e-07
7.005742927e-07
7.005749653e-07
7.005759497e-07
7.005772358e-07
7.005788149e-07
7.005806785e-07
7.005828193e-07
7.005852068e-07
7.005878708e-07
7.005907797e-07
7.005939191e-07
7.005972772e-07
7.006008419e-07
7.006046007e-07
7.006085406e-07
7.006126485e-07
7.006169107e-07
7.006213133e-07
7.006258418e-07
7.006304817e-07
7.006352181e-07
7.006400357e-07
7.00644919e-07
7.006498522e-07
7.006548194e-07
7.006598044e-07
7.006647908e-07
7.00669762e-07
7.006747013e-07
7.006795919e-07
7.006844169e-07
7.006891592e-07
7.00693802e-07
7.006983283e-07
7.007027212e-07
7.007069641e-07
7.007110405e-07
7.007149525e-07
7.007186946e-07
7.007222206e-07
7.007255134e-07
7.00728556e-07
7.007313311e-07
7.007338219e-07
7.007360169e-07
7.007379045e-07
7.007394331e-07
7.007406135e-07
7.007414309e-07
7.007418704e-07
7.007419177e-07
7.007415586e-07
7.007407794e-07
7.007395668e-07
7.00737908e-07
7.007357906e-07
7.007332027e-07
7.00730133e-07
7.007265706e-07
7.007225051e-07
7.007179268e-07
7.007128267e-07
7.00707196e-07
7.007010268e-07
7.00694312e-07
7.006870448e-07
7.006792192e-07
7.006708301e-07
7.006618729e-07
7.006523439e-07
7.0064224e-07
7.006315591e-07
7.006202999e-07
7.006084622e-07
7.005962323e-07
7.00583423e-07
7.00570032e-07
7.005560611e-07
7.005415127e-07
7.005263901e-07
7.005106974e-07
7.004944393e-07
7.004776216e-07
7.004602504e-07
7.00442333e-07
7.004238771e-07
7.004048913e-07
7.003853849e-07
7.00365368e-07
7.003448511e-07
7.003238458e-07
7.00302364e-07
7.002804186e-07
7.00258023e-07
7.00235191e-07
7.002119375e-07
7.001882776e-07
7.00164227e-07
7.001398023e-07
7.001150201e-07
7.000898981e-07
7.00064454e-07
7.000387062e-07
7.000126735e-07
6.999863751e-07
6.999598306e-07
6.999330601e-07
6.999060836e-07
6.99878922e-07
6.99851596e-07
6.998241269e-07
6.997965359e-07
6.997688447e-07
6.997410749e-07
6.997132484e-07
6.996853872e-07
6.996575133e-07
6.996296489e-07
6.99601816e-07
6.995740366e-07
6.99546333e-07
6.995187271e-07
6.994912407e-07
6.994638956e-07
6.994367135e-07
6.994097157e-07
6.993829235e-07
6.993563578e-07
6.993300394e-07
6.993039886e-07
6.992782257e-07
6.992527702e-07
6.992276416e-07
6.99202859e-07
6.991784409e-07
6.991544055e-07
6.991307705e-07
6.991075531e-07
6.990847701e-07
6.990624376e-07
6.990405714e-07
6.990191867e-07
6.989982979e-07
6.989779192e-07
6.989580639e-07
6.989387447e-07
6.98919974e-07
6.989017632e-07
6.988841233e-07
6.988670645e-07
6.988505964e-07
6.988347279e-07
6.988194673e-07
6.988048222e-07
6.987907995e-07
6.987774053e-07
6.987646453e-07
6.987525242e-07
6.987410462e-07
6.987302146e-07
6.987200323e-07
6.987105012e-07
6.987016228e-07
6.986933977e-07
6.986858258e-07
6.986789065e-07
6.986726383e-07
6.986670192e-07
6.986620465e-07
6.986577167e-07
6.98654026e-07
6.986509695e-07
6.986485419e-07
6.98646737e-07
6.986455471e-07
6.986449612e-07
6.986450019e-07
6.98645588e-07
6.986468127e-07
6.98648612e-07
6.986509833e-07
6.986539086e-07
6.986573727e-07
6.986613639e-07
6.986658694e-07
6.986708755e-07
6.986763677e-07
6.986823312e-07
6.9868875e-07
6.986956074e-07
6.987028857e-07
6.987105664e-07
6.987186296e-07
6.98727054e-07
6.987358168e-07
6.987448932e-07
6.987542562e-07
6.987638755e-07
6.987737168e-07
6.987837395e-07
6.987938946e-07
6.988041198e-07
6.988143338e-07
6.988244478e-07
6.988345935e-07
6.988448384e-07
6.988551644e-07
6.988655527e-07
6.98875984e-07
6.988864376e-07
6.988968959e-07
6.98907331e-07
6.98917734e-07
6.989280781e-07
6.989383414e-07
6.989485025e-07
6.989585399e-07
6.989684317e-07
6.989781562e-07
6.989876914e-07
6.989970152e-07
6.990061052e-07
6.990149392e-07
6.990234946e-07
6.990317488e-07
6.99039679e-07
6.990472624e-07
6.990544761e-07
6.99061297e-07
6.990677018e-07
6.990736674e-07
6.990791704e-07
6.990841873e-07
6.990886947e-07
6.99092669e-07
6.990960864e-07
6.990989232e-07
6.991011555e-07
6.991027591e-07
6.991037083e-07
6.991039703e-07
6.991035738e-07
6.991023973e-07
6.991004479e-07
6.990977235e-07
6.990941992e-07
6.990898504e-07
6.990846527e-07
6.990785813e-07
6.990716119e-07
6.9906372e-07
6.990548812e-07
6.990450712e-07
6.990342658e-07
6.99022441e-07
6.990095732e-07
6.98995639e-07
6.989806154e-07
6.9896448e-07
6.989472113e-07
6.989287886e-07
6.989091922e-07
6.98888404e-07
6.988664077e-07
6.988431889e-07
6.988187363e-07
6.987930416e-07
6.987661007e-07
6.987379146e-07
6.987084903e-07
6.986778424e-07
6.986459949e-07
6.986129827e-07
6.985788548e-07
6.985436769e-07
6.985075355e-07
6.984705417e-07
6.984328376e-07
6.983946022e-07
6.983560598e-07
6.983174897e-07
6.982792381e-07
6.982417317e-07
6.982054953e-07
6.981711719e-07
6.981395465e-07
6.981115754e-07
6.980884191e-07
6.980714816e-07
6.980624553e-07
)
;

boundaryField
{
    inlet
    {
        type            calculated;
        value           uniform -6.024147583e-06;
    }
    outlet
    {
        type            calculated;
        value           uniform 6.980624553e-07;
    }
    upperWall
    {
        type            empty;
    }
    lowerWall
    {
        type            empty;
    }
    frontAndBack
    {
        type            empty;
    }
}


// ************************************************************************* //
