/*--------------------------------*- C++ -*----------------------------------*\
  =========                 |
  \\      /  F ield         | OpenFOAM: The Open Source CFD Toolbox
   \\    /   O peration     | Website:  https://openfoam.org
    \\  /    A nd           | Version:  9
     \\/     M anipulation  |
\*---------------------------------------------------------------------------*/
FoamFile
{
    format      ascii;
    class       volScalarField;
    location    "0.019";
    object      dZZ;
}
// * * * * * * * * * * * * * * * * * * * * * * * * * * * * * * * * * * * * * //

dimensions      [1 -1 -1 0 0 0 0];

internalField   nonuniform List<scalar> 
1000
(
7.963113184e-05
7.963113184e-05
7.963113184e-05
7.963113184e-05
7.963113184e-05
7.963113184e-05
7.963113184e-05
7.963113184e-05
7.963113184e-05
7.963113184e-05
7.963113184e-05
7.963113184e-05
7.963113184e-05
7.963113184e-05
7.963113184e-05
7.963113184e-05
7.963113184e-05
7.963113184e-05
7.963113184e-05
7.963113184e-05
7.963113184e-05
7.963113184e-05
7.963113184e-05
7.963113184e-05
7.963113184e-05
7.963113184e-05
7.963113184e-05
7.963113184e-05
7.963113184e-05
7.963113184e-05
7.963113184e-05
7.963113184e-05
7.963113184e-05
7.963113184e-05
7.963113184e-05
7.963113184e-05
7.963113184e-05
7.963113184e-05
7.963113184e-05
7.963113184e-05
7.963113184e-05
7.963113184e-05
7.963113184e-05
7.963113184e-05
7.963113184e-05
7.963113184e-05
7.963113184e-05
7.963113184e-05
7.963113184e-05
7.963113184e-05
7.963113184e-05
7.963113184e-05
7.963113184e-05
7.963113184e-05
7.963113184e-05
7.963113184e-05
7.963113184e-05
7.963113184e-05
7.963113184e-05
7.963113184e-05
7.963113184e-05
7.963113184e-05
7.963113184e-05
7.963113184e-05
7.963113184e-05
7.963113184e-05
7.963113184e-05
7.963113184e-05
7.963113184e-05
7.963113184e-05
7.963113184e-05
7.963113184e-05
7.963113184e-05
7.963113184e-05
7.963113184e-05
7.963113184e-05
7.963113184e-05
7.963113184e-05
7.963113184e-05
7.963113184e-05
7.963113184e-05
7.963113184e-05
7.963113184e-05
7.963113184e-05
7.963113184e-05
7.963113184e-05
7.963113184e-05
7.963113184e-05
7.963113184e-05
7.963113184e-05
7.963113184e-05
7.963113184e-05
7.963113184e-05
7.963113184e-05
7.963113184e-05
7.963113184e-05
7.963113184e-05
7.963113184e-05
7.963113184e-05
7.963113184e-05
7.963113184e-05
7.963113184e-05
7.963113184e-05
7.963113184e-05
7.963113184e-05
7.963113184e-05
7.963113184e-05
7.963113184e-05
7.963113184e-05
7.963113184e-05
7.963113184e-05
7.963113184e-05
7.963113184e-05
7.963113184e-05
7.963113184e-05
7.963113184e-05
7.963113184e-05
7.963113184e-05
7.963113184e-05
7.963113184e-05
7.963113184e-05
7.963113184e-05
7.963113184e-05
7.963113184e-05
7.963113184e-05
7.963113184e-05
7.963113184e-05
7.963113184e-05
7.963113184e-05
7.963113184e-05
7.963113184e-05
7.963113184e-05
7.963113184e-05
7.963113184e-05
7.963113184e-05
7.963113184e-05
7.963113184e-05
7.963113184e-05
7.963113184e-05
7.963113184e-05
7.963113184e-05
7.963113184e-05
7.963113184e-05
7.963113184e-05
7.963113184e-05
7.963113184e-05
7.963113184e-05
7.963113184e-05
7.963113184e-05
7.963113184e-05
7.963113184e-05
7.963113184e-05
7.963113184e-05
7.963113184e-05
7.963113184e-05
7.963113184e-05
7.963113184e-05
7.963113184e-05
7.963113184e-05
7.963113184e-05
7.963113184e-05
7.963113184e-05
7.963113184e-05
7.963113184e-05
7.963113184e-05
7.963113184e-05
7.963113184e-05
7.963113184e-05
7.963113184e-05
7.963113184e-05
7.963113184e-05
7.963113184e-05
7.963113184e-05
7.963113184e-05
7.963113184e-05
7.963113184e-05
7.963113184e-05
7.963113184e-05
7.963113184e-05
7.963113184e-05
7.963113184e-05
7.963113184e-05
7.963113184e-05
7.963113184e-05
7.963113184e-05
7.963113184e-05
7.963113184e-05
7.963113184e-05
7.963113184e-05
7.963113184e-05
7.963113184e-05
7.963113184e-05
7.963113184e-05
7.963113184e-05
7.963113184e-05
7.963113184e-05
7.963113184e-05
7.963113184e-05
7.963113184e-05
7.963113184e-05
7.963113184e-05
7.963113184e-05
7.963113184e-05
7.963113184e-05
7.963113184e-05
7.963113184e-05
7.963113184e-05
7.963113184e-05
7.963113184e-05
7.963113184e-05
7.963113184e-05
7.963113184e-05
7.963113184e-05
7.963113184e-05
7.963113184e-05
7.963113184e-05
7.963113184e-05
7.963113184e-05
7.963113184e-05
7.963113184e-05
7.963113184e-05
7.963113184e-05
7.963113184e-05
7.963113184e-05
7.963113184e-05
7.963113184e-05
7.963113184e-05
7.963113184e-05
7.963113184e-05
7.963113184e-05
7.963113184e-05
7.963113184e-05
7.963113184e-05
7.963113184e-05
7.963113184e-05
7.963113184e-05
7.963113184e-05
7.963113184e-05
7.963113184e-05
7.963113184e-05
7.963113184e-05
7.963113184e-05
7.963113184e-05
7.963113184e-05
7.963113184e-05
7.963113184e-05
7.963113184e-05
7.963113184e-05
7.963113184e-05
7.963113184e-05
7.963113184e-05
7.963113184e-05
7.963113184e-05
7.963113184e-05
7.963113184e-05
7.963113184e-05
7.963113184e-05
7.963113184e-05
7.963113184e-05
7.963113184e-05
7.963113184e-05
7.963113184e-05
7.963113184e-05
7.963113184e-05
7.963113184e-05
7.963113184e-05
7.963113184e-05
7.963113184e-05
7.963113184e-05
7.963113184e-05
7.963113184e-05
7.963113184e-05
7.963113184e-05
7.963113184e-05
7.963113184e-05
7.963113184e-05
7.963113184e-05
7.963113184e-05
7.963113184e-05
7.963113184e-05
7.963113184e-05
7.963113184e-05
7.963113184e-05
7.963113184e-05
7.963113184e-05
7.963113184e-05
7.963113184e-05
7.963113184e-05
7.963113184e-05
7.963113184e-05
7.963113184e-05
7.963113184e-05
7.963113184e-05
7.963113184e-05
7.963113184e-05
7.963113184e-05
7.963113184e-05
7.963113184e-05
7.963113184e-05
7.963113184e-05
7.963113184e-05
7.963113184e-05
7.963113184e-05
7.963113184e-05
7.963113184e-05
7.963113184e-05
7.963113184e-05
7.963113184e-05
7.963113184e-05
7.963113184e-05
7.963113184e-05
7.963113184e-05
7.963113184e-05
7.963113184e-05
7.963113184e-05
7.963113184e-05
7.963113184e-05
7.963113184e-05
7.963113184e-05
7.963113184e-05
7.963113184e-05
7.963113184e-05
7.963113184e-05
7.963113184e-05
7.963113184e-05
7.963113184e-05
7.963113184e-05
7.963113184e-05
7.963113184e-05
7.963113184e-05
7.963113184e-05
7.963113184e-05
7.963113184e-05
7.963113184e-05
7.963113184e-05
7.963113184e-05
7.963113184e-05
7.963113184e-05
7.963113184e-05
7.963113184e-05
7.963113184e-05
7.963113184e-05
7.963113184e-05
7.963113184e-05
7.963113184e-05
7.963113184e-05
7.963113184e-05
7.963113184e-05
7.963113184e-05
7.963113184e-05
7.963113184e-05
7.963113184e-05
7.963113184e-05
7.963113184e-05
7.963113184e-05
7.963113184e-05
7.963113184e-05
7.963113184e-05
7.963113184e-05
7.963113184e-05
7.963113184e-05
7.963113184e-05
7.963113184e-05
7.963113184e-05
7.963113184e-05
7.963113184e-05
7.963113184e-05
7.963113184e-05
7.963113184e-05
7.963113184e-05
7.963113184e-05
7.963113184e-05
7.963113184e-05
7.963113184e-05
7.963113184e-05
7.963113184e-05
7.963113184e-05
7.963113184e-05
7.963113184e-05
7.963113184e-05
7.963113184e-05
7.963113184e-05
7.963113184e-05
7.963113184e-05
7.963113184e-05
7.963113184e-05
7.963113184e-05
7.963113184e-05
7.963113184e-05
7.963113184e-05
7.963113184e-05
7.963113184e-05
7.963113184e-05
7.963113184e-05
7.963113184e-05
7.963113184e-05
7.963113184e-05
7.963113184e-05
7.963113184e-05
7.963113184e-05
7.963113184e-05
7.963113184e-05
7.963113184e-05
7.963113184e-05
7.963113184e-05
7.963113185e-05
7.963113185e-05
7.963113185e-05
7.963113185e-05
7.963113186e-05
7.963113187e-05
7.963113188e-05
7.963113189e-05
7.963113191e-05
7.963113194e-05
7.963113197e-05
7.963113202e-05
7.963113208e-05
7.963113217e-05
7.963113229e-05
7.963113245e-05
7.963113267e-05
7.963113297e-05
7.963113337e-05
7.963113391e-05
7.963113465e-05
7.963113564e-05
7.9631137e-05
7.963113883e-05
7.963114132e-05
7.963114469e-05
7.963114925e-05
7.963115544e-05
7.963116383e-05
7.963117521e-05
7.963119062e-05
7.963121151e-05
7.963123983e-05
7.963127821e-05
7.963133022e-05
7.963140073e-05
7.963149628e-05
7.96316258e-05
7.963180133e-05
7.963203925e-05
7.96323617e-05
7.963279874e-05
7.963339106e-05
7.963419384e-05
7.963528184e-05
7.963675639e-05
7.96387548e-05
7.96414632e-05
7.964513393e-05
7.965010923e-05
7.965685368e-05
7.966599887e-05
7.967840589e-05
7.969525459e-05
7.971827269e-05
7.974971325e-05
7.979282181e-05
7.985241969e-05
7.993599584e-05
8.00563132e-05
8.023552271e-05
8.051761983e-05
8.099253376e-05
8.185479994e-05
8.352684664e-05
8.690799074e-05
9.376568042e-05
0.0001049104999
0.0001228517864
0.0001472658206
0.0001702232022
0.0001933628459
0.0002181710472
0.0002446868924
0.000271387755
0.0002955908551
0.0003142900697
0.0003255278527
0.0003268230089
0.000318326486
0.0003041609971
0.0002880873117
0.0002723993621
0.0002580754019
0.0002454134228
0.000234353844
0.0002247081256
0.0002162579225
0.000208783829
0.0002021194308
0.0001960897163
0.0001905813466
0.00018552356
0.000180851557
0.0001765055273
0.0001724513985
0.0001686587039
0.000165099713
0.0001617512293
0.0001585940392
0.0001556119014
0.0001527909631
0.000150119462
0.0001475831571
0.0001451643853
0.0001428653512
0.0001406795821
0.000138598179
0.0001365969472
0.0001346914132
0.0001328733481
0.0001311177842
0.0001294460906
0.0001278343456
0.0001262882608
0.000124804244
0.0001233705823
0.0001219965797
0.0001206646764
0.0001193864974
0.0001181479558
0.0001169538269
0.0001158020232
0.0001146824002
0.0001136119768
0.0001125589196
0.0001115505262
0.0001105720749
0.0001096193817
0.0001087053108
0.0001078101935
0.0001069434951
0.0001061105286
0.0001052926855
0.0001045011968
0.0001037394558
0.0001029945542
0.0001022685409
0.0001015688107
0.0001008924977
0.0001002245311
9.957984525e-05
9.89574125e-05
9.835168901e-05
9.775527539e-05
9.717863799e-05
9.66209079e-05
9.608003236e-05
9.554419346e-05
9.502525056e-05
9.452236036e-05
9.403479889e-05
9.355670626e-05
9.30864415e-05
9.262981998e-05
9.218628645e-05
9.17552687e-05
9.133344875e-05
9.091604199e-05
9.050979882e-05
9.011428943e-05
8.97290742e-05
8.93536985e-05
8.898362377e-05
8.86185923e-05
8.8262398e-05
8.791473698e-05
8.757530009e-05
8.724376902e-05
8.691959976e-05
8.659584848e-05
8.627925318e-05
8.596960926e-05
8.566670971e-05
8.537034197e-05
8.508028488e-05
8.479630391e-05
8.451352001e-05
8.423506194e-05
8.396224444e-05
8.369493453e-05
8.343299563e-05
8.317628404e-05
8.292464748e-05
8.267792048e-05
8.243310849e-05
8.219077073e-05
8.195302701e-05
8.171978816e-05
8.149096198e-05
8.126645033e-05
8.104614902e-05
8.082994442e-05
8.061771261e-05
8.040838168e-05
8.019955652e-05
7.999443467e-05
7.979295098e-05
7.959503717e-05
7.940062254e-05
7.920963208e-05
7.902198681e-05
7.883760142e-05
7.865638388e-05
7.847823253e-05
7.830149693e-05
7.812586196e-05
7.795309159e-05
7.778313584e-05
7.761594442e-05
7.745146576e-05
7.728964731e-05
7.71304345e-05
7.697377065e-05
7.681959565e-05
7.666784531e-05
7.651844955e-05
7.637133095e-05
7.622390788e-05
7.607838327e-05
7.593501907e-05
7.579378612e-05
7.565465538e-05
7.551759795e-05
7.538258468e-05
7.524958598e-05
7.511857138e-05
7.498950911e-05
7.486236549e-05
7.473710417e-05
7.461368522e-05
7.449206391e-05
7.43721742e-05
7.425168807e-05
7.413290259e-05
7.401580191e-05
7.390037014e-05
7.378659096e-05
7.367444779e-05
7.356392341e-05
7.345500009e-05
7.334765904e-05
7.324188059e-05
7.313764342e-05
7.303492473e-05
7.293369906e-05
7.283393826e-05
7.273560995e-05
7.263867696e-05
7.254309493e-05
7.244881084e-05
7.243059832e-05
7.24283457e-05
7.242612595e-05
7.242393847e-05
7.242178266e-05
7.24196579e-05
7.241756358e-05
7.241549908e-05
7.241346377e-05
7.241145704e-05
7.240947826e-05
7.240752682e-05
7.240560207e-05
7.24037034e-05
7.240183017e-05
7.239998174e-05
7.239815745e-05
7.239635663e-05
7.23945786e-05
7.239282262e-05
7.239108793e-05
7.238937371e-05
7.238767903e-05
7.238669583e-05
7.238674607e-05
7.238679264e-05
7.238683546e-05
7.238687447e-05
7.23869096e-05
7.238694079e-05
7.238696799e-05
7.238699114e-05
7.238701021e-05
7.238702516e-05
7.238703594e-05
7.238704252e-05
7.238704489e-05
7.238704301e-05
7.238703687e-05
7.238702646e-05
7.238701177e-05
7.238699279e-05
7.238696954e-05
7.238694201e-05
7.238691022e-05
7.23868742e-05
7.238683395e-05
7.23867895e-05
7.23867409e-05
7.238668817e-05
7.238663135e-05
7.238657049e-05
7.238650563e-05
7.238643682e-05
7.23863641e-05
7.23862789e-05
7.238618969e-05
7.238609682e-05
7.23860004e-05
7.238590052e-05
7.238579723e-05
7.238569099e-05
7.238558126e-05
7.23854685e-05
7.238535289e-05
7.238523458e-05
7.238511371e-05
7.238499042e-05
7.238486487e-05
7.238473723e-05
7.238460765e-05
7.238447632e-05
7.238434341e-05
7.238420909e-05
7.238407357e-05
7.238393702e-05
7.238379965e-05
7.238366166e-05
7.238352324e-05
7.238338461e-05
7.238324598e-05
7.238310755e-05
7.238296956e-05
7.23828322e-05
7.238269571e-05
7.23825603e-05
7.238242619e-05
7.238229361e-05
7.238216276e-05
7.238203386e-05
7.238190713e-05
7.238177974e-05
7.238165005e-05
7.238152318e-05
7.238139934e-05
7.238127879e-05
7.238116177e-05
7.23810485e-05
7.238093915e-05
7.238083387e-05
7.238073347e-05
7.238063775e-05
7.238054692e-05
7.23804612e-05
7.23803808e-05
7.238030592e-05
7.238023677e-05
7.238017355e-05
7.238011645e-05
7.238006567e-05
7.238002138e-05
7.237998377e-05
7.237995299e-05
7.237992922e-05
7.237991261e-05
7.23799033e-05
7.237990145e-05
7.237990717e-05
7.23799206e-05
7.237994185e-05
7.237997102e-05
7.238000821e-05
7.23800535e-05
7.238010697e-05
7.238016868e-05
7.238023868e-05
7.2380317e-05
7.238040368e-05
7.238049659e-05
7.238059791e-05
7.238070767e-05
7.23808259e-05
7.238095259e-05
7.238108772e-05
7.238123128e-05
7.238138322e-05
7.23815435e-05
7.238171207e-05
7.238188885e-05
7.238207378e-05
7.238226676e-05
7.238246769e-05
7.238267646e-05
7.238289296e-05
7.238311705e-05
7.23833486e-05
7.238358745e-05
7.238383345e-05
7.238408642e-05
7.238434619e-05
7.238461257e-05
7.238488536e-05
7.238516435e-05
7.238544934e-05
7.238574009e-05
7.238603639e-05
7.238633799e-05
7.238664464e-05
7.238695611e-05
7.238727212e-05
7.238759241e-05
7.238791671e-05
7.238824475e-05
7.238857624e-05
7.23889109e-05
7.238924844e-05
7.238958857e-05
7.238993098e-05
7.239027537e-05
7.239062145e-05
7.239096889e-05
7.239131741e-05
7.239166668e-05
7.239201639e-05
7.239236624e-05
7.23927159e-05
7.239306508e-05
7.239341346e-05
7.239376072e-05
7.239410656e-05
7.239445067e-05
7.239479274e-05
7.239513248e-05
7.239546959e-05
7.239580375e-05
7.23961347e-05
7.239646213e-05
7.239678576e-05
7.239710531e-05
7.239742051e-05
7.239773109e-05
7.239803678e-05
7.239833733e-05
7.239863249e-05
7.239892201e-05
7.239920565e-05
7.239948319e-05
7.23997544e-05
7.240001906e-05
7.240027698e-05
7.240052794e-05
7.240077176e-05
7.240100825e-05
7.240123725e-05
7.240145858e-05
7.240167209e-05
7.240187763e-05
7.240207506e-05
7.240226425e-05
7.240244509e-05
7.240261746e-05
7.240278126e-05
7.24029364e-05
7.240308279e-05
7.240322038e-05
7.240334908e-05
7.240346885e-05
7.240357965e-05
7.240368144e-05
7.24037742e-05
7.240385791e-05
7.240393257e-05
7.240399818e-05
7.240405476e-05
7.240410234e-05
7.240414093e-05
7.24041706e-05
7.240419139e-05
7.240420339e-05
7.240420672e-05
7.240420098e-05
7.240418744e-05
7.240416453e-05
7.240413325e-05
7.240409346e-05
7.240404546e-05
7.240398956e-05
7.240392589e-05
7.240385462e-05
7.240377594e-05
7.240369004e-05
7.240359713e-05
7.240349745e-05
7.240339124e-05
7.240327878e-05
7.240316036e-05
7.240303632e-05
7.2402907e-05
7.240277282e-05
7.240263422e-05
7.240249173e-05
7.240234594e-05
7.240219758e-05
7.24020475e-05
7.240189681e-05
7.240174691e-05
7.240159967e-05
7.240146189e-05
7.240132669e-05
7.240119018e-05
7.240105258e-05
7.240091416e-05
7.240077516e-05
7.240063586e-05
7.24004965e-05
7.240035746e-05
7.240021884e-05
7.2400081e-05
7.239994424e-05
7.239980884e-05
7.239967509e-05
7.239954328e-05
7.23994137e-05
7.239928664e-05
7.23991624e-05
7.239904128e-05
7.239892356e-05
7.239880956e-05
7.239869957e-05
7.23985939e-05
7.239849285e-05
7.239839673e-05
7.239830584e-05
7.239822049e-05
7.2398141e-05
7.239806767e-05
7.239800082e-05
7.239794076e-05
7.23978878e-05
7.239784227e-05
7.239780447e-05
7.239777472e-05
7.239775335e-05
7.23977407e-05
7.239773721e-05
7.23977425e-05
7.239775817e-05
7.239778415e-05
7.239782045e-05
7.239786741e-05
7.239792536e-05
7.239799462e-05
7.239807552e-05
7.239816839e-05
7.239827355e-05
7.239839133e-05
7.239852205e-05
7.239866603e-05
7.23988236e-05
7.239899507e-05
7.239918074e-05
7.239938093e-05
7.239959594e-05
7.239982605e-05
7.240007153e-05
7.240033266e-05
7.240060966e-05
7.240090276e-05
7.240121216e-05
7.240153799e-05
7.240188038e-05
7.240223937e-05
7.240261495e-05
7.240300703e-05
7.240341542e-05
7.240383979e-05
7.240427969e-05
7.240473444e-05
7.240520319e-05
7.240568478e-05
7.240617773e-05
7.240668014e-05
7.240718963e-05
7.240770322e-05
7.240821717e-05
7.240872688e-05
7.240922665e-05
7.240970951e-05
7.241016687e-05
7.241058828e-05
7.2410961e-05
7.241126956e-05
7.241149526e-05
7.241161553e-05
)
;

boundaryField
{
    inlet
    {
        type            calculated;
        value           uniform 7.963113184e-05;
    }
    outlet
    {
        type            calculated;
        value           uniform 7.241161553e-05;
    }
    upperWall
    {
        type            empty;
    }
    lowerWall
    {
        type            empty;
    }
    frontAndBack
    {
        type            empty;
    }
}


// ************************************************************************* //
