/*--------------------------------*- C++ -*----------------------------------*\
  =========                 |
  \\      /  F ield         | OpenFOAM: The Open Source CFD Toolbox
   \\    /   O peration     | Website:  https://openfoam.org
    \\  /    A nd           | Version:  9
     \\/     M anipulation  |
\*---------------------------------------------------------------------------*/
FoamFile
{
    format      ascii;
    class       volScalarField;
    location    "0.019";
    object      H;
}
// * * * * * * * * * * * * * * * * * * * * * * * * * * * * * * * * * * * * * //

dimensions      [0 0 0 0 0 0 0];

internalField   nonuniform List<scalar> 
1000
(
5.479410245e-14
5.479410245e-14
5.479410245e-14
5.479410245e-14
5.479410245e-14
5.479410245e-14
5.479410245e-14
5.479410245e-14
5.479410245e-14
5.479410245e-14
5.479410245e-14
5.479410245e-14
5.479410245e-14
5.479410245e-14
5.479410245e-14
5.479410245e-14
5.479410245e-14
5.479410245e-14
5.479410245e-14
5.479410245e-14
5.479410245e-14
5.479410245e-14
5.479410245e-14
5.479410245e-14
5.479410245e-14
5.479410245e-14
5.479410245e-14
5.479410245e-14
5.479410245e-14
5.479410245e-14
5.479410245e-14
5.479410245e-14
5.479410245e-14
5.479410245e-14
5.479410245e-14
5.479410245e-14
5.479410245e-14
5.479410245e-14
5.479410245e-14
5.479410245e-14
5.479410245e-14
5.479410245e-14
5.479410245e-14
5.479410245e-14
5.479410245e-14
5.479410245e-14
5.479410245e-14
5.479410245e-14
5.479410245e-14
5.479410245e-14
5.479410245e-14
5.479410245e-14
5.479410245e-14
5.479410245e-14
5.479410245e-14
5.479410245e-14
5.479410245e-14
5.479410245e-14
5.479410245e-14
5.479410245e-14
5.479410245e-14
5.479410245e-14
5.479410245e-14
5.479410245e-14
5.479410245e-14
5.479410245e-14
5.479410245e-14
5.479410245e-14
5.479410245e-14
5.479410245e-14
5.479410245e-14
5.479410245e-14
5.479410245e-14
5.479410245e-14
5.479410245e-14
5.479410245e-14
5.479410245e-14
5.479410245e-14
5.479410245e-14
5.479410245e-14
5.479410245e-14
5.479410245e-14
5.479410245e-14
5.479410245e-14
5.479410245e-14
5.479410245e-14
5.479410245e-14
5.479410245e-14
5.479410245e-14
5.479410245e-14
5.479410245e-14
5.479410245e-14
5.479410245e-14
5.479410245e-14
5.479410245e-14
5.479410245e-14
5.479410245e-14
5.479410245e-14
5.479410245e-14
5.479410245e-14
5.479410245e-14
5.479410245e-14
5.479410245e-14
5.479410245e-14
5.479410245e-14
5.479410245e-14
5.479410245e-14
5.479410245e-14
5.479410245e-14
5.479410245e-14
5.479410245e-14
5.479410245e-14
5.479410245e-14
5.479410245e-14
5.479410245e-14
5.479410245e-14
5.479410245e-14
5.479410245e-14
5.479410245e-14
5.479410245e-14
5.479410245e-14
5.479410245e-14
5.479410245e-14
5.479410245e-14
5.479410245e-14
5.479410245e-14
5.479410245e-14
5.479410245e-14
5.479410245e-14
5.479410245e-14
5.479410245e-14
5.479410245e-14
5.479410245e-14
5.479410245e-14
5.479410245e-14
5.479410245e-14
5.479410245e-14
5.479410245e-14
5.479410245e-14
5.479410245e-14
5.479410245e-14
5.479410245e-14
5.479410245e-14
5.479410245e-14
5.479410245e-14
5.479410245e-14
5.479410245e-14
5.479410245e-14
5.479410245e-14
5.479410245e-14
5.479410245e-14
5.479410245e-14
5.479410245e-14
5.479410245e-14
5.479410245e-14
5.479410245e-14
5.479410245e-14
5.479410245e-14
5.479410245e-14
5.479410245e-14
5.479410245e-14
5.479410245e-14
5.479410245e-14
5.479410245e-14
5.479410245e-14
5.479410245e-14
5.479410245e-14
5.479410245e-14
5.479410245e-14
5.479410245e-14
5.479410245e-14
5.479410245e-14
5.479410245e-14
5.479410245e-14
5.479410245e-14
5.479410245e-14
5.479410245e-14
5.479410245e-14
5.479410245e-14
5.479410245e-14
5.479410245e-14
5.479410245e-14
5.479410245e-14
5.479410245e-14
5.479410245e-14
5.479410245e-14
5.479410245e-14
5.479410245e-14
5.479410245e-14
5.479410245e-14
5.479410245e-14
5.479410245e-14
5.479410245e-14
5.479410245e-14
5.479410245e-14
5.479410245e-14
5.479410245e-14
5.479410245e-14
5.479410245e-14
5.479410245e-14
5.479410245e-14
5.479410245e-14
5.479410245e-14
5.479410245e-14
5.479410245e-14
5.479410245e-14
5.479410245e-14
5.479410245e-14
5.479410245e-14
5.479410245e-14
5.479410245e-14
5.479410245e-14
5.479410245e-14
5.479410245e-14
5.479410245e-14
5.479410245e-14
5.479410245e-14
5.479410245e-14
5.479410245e-14
5.479410245e-14
5.479410245e-14
5.479410245e-14
5.479410245e-14
5.479410245e-14
5.479410245e-14
5.479410245e-14
5.479410245e-14
5.479410245e-14
5.479410245e-14
5.479410245e-14
5.479410245e-14
5.479410245e-14
5.479410245e-14
5.479410245e-14
5.479410245e-14
5.479410245e-14
5.479410245e-14
5.479410245e-14
5.479410245e-14
5.479410245e-14
5.479410245e-14
5.479410245e-14
5.479410245e-14
5.479410245e-14
5.479410245e-14
5.479410245e-14
5.479410245e-14
5.479410245e-14
5.479410245e-14
5.479410245e-14
5.479410245e-14
5.479410245e-14
5.479410245e-14
5.479410245e-14
5.479410245e-14
5.479410245e-14
5.479410245e-14
5.479410245e-14
5.479410245e-14
5.479410245e-14
5.479410245e-14
5.479410245e-14
5.479410245e-14
5.479410245e-14
5.479410245e-14
5.479410245e-14
5.479410245e-14
5.479410245e-14
5.479410245e-14
5.479410245e-14
5.479410245e-14
5.479410245e-14
5.479410245e-14
5.479410245e-14
5.479410245e-14
5.479410245e-14
5.479410245e-14
5.479410245e-14
5.479410245e-14
5.479410245e-14
5.479410245e-14
5.479410245e-14
5.479410245e-14
5.479410245e-14
5.479410245e-14
5.479410245e-14
5.479410245e-14
5.479410245e-14
5.479410245e-14
5.479410245e-14
5.479410245e-14
5.479410245e-14
5.479410245e-14
5.479410245e-14
5.479410245e-14
5.479410245e-14
5.479410245e-14
5.479410245e-14
5.479410245e-14
5.479410245e-14
5.479410245e-14
5.479410245e-14
5.479410245e-14
5.479410245e-14
5.479410245e-14
5.479410245e-14
5.479410245e-14
5.479410245e-14
5.479410245e-14
5.479410245e-14
5.479410245e-14
5.479410245e-14
5.479410245e-14
5.479410245e-14
5.479410245e-14
5.479410245e-14
5.479410245e-14
5.479410245e-14
5.479410245e-14
5.479410245e-14
5.479410245e-14
5.479410245e-14
5.479410245e-14
5.479410245e-14
5.479410245e-14
5.479410245e-14
5.479410245e-14
5.479410245e-14
5.479410245e-14
5.479410245e-14
5.479410245e-14
5.479410245e-14
5.479410245e-14
5.479410245e-14
5.479410245e-14
5.479410245e-14
5.479410245e-14
5.479410245e-14
5.479410245e-14
5.479410245e-14
5.479410245e-14
5.479410245e-14
5.479410245e-14
5.479410245e-14
5.479410245e-14
5.479410245e-14
5.479410245e-14
5.479410245e-14
5.479410245e-14
5.479410245e-14
5.479410245e-14
5.479410245e-14
5.479410245e-14
5.479410245e-14
5.479410245e-14
5.479410245e-14
5.479410245e-14
5.479410245e-14
5.479410245e-14
5.479410245e-14
5.479410245e-14
5.479410245e-14
5.479410245e-14
5.479410245e-14
5.479410245e-14
5.479410245e-14
5.479410245e-14
5.479410245e-14
5.479410245e-14
5.479410245e-14
5.479410245e-14
5.479410245e-14
5.479410245e-14
5.479410245e-14
5.479410245e-14
5.479410245e-14
5.479410245e-14
5.479410245e-14
5.479410245e-14
5.479410245e-14
5.479410245e-14
5.479410245e-14
5.479410245e-14
5.479410245e-14
5.479410245e-14
5.479410245e-14
5.479410245e-14
5.479410246e-14
5.479410246e-14
5.479410246e-14
5.479410246e-14
5.479410247e-14
5.479410248e-14
5.479410249e-14
5.47941025e-14
5.479410252e-14
5.479410254e-14
5.479410257e-14
5.479410262e-14
5.479410268e-14
5.479410276e-14
5.479410287e-14
5.479410302e-14
5.479410322e-14
5.479410349e-14
5.479410387e-14
5.479410437e-14
5.479410505e-14
5.479410598e-14
5.479410723e-14
5.479410894e-14
5.479411125e-14
5.479411437e-14
5.479411862e-14
5.479412437e-14
5.479413217e-14
5.479414274e-14
5.479415707e-14
5.479417649e-14
5.479420283e-14
5.479423852e-14
5.479428691e-14
5.479435251e-14
5.479444142e-14
5.479456195e-14
5.479472532e-14
5.479494677e-14
5.479524694e-14
5.47956538e-14
5.479620528e-14
5.479695278e-14
5.479796597e-14
5.479933929e-14
5.480120076e-14
5.480372397e-14
5.480714433e-14
5.481178131e-14
5.48180689e-14
5.482659775e-14
5.48381746e-14
5.485390827e-14
5.487534025e-14
5.490465652e-14
5.494506196e-14
5.500150618e-14
5.508221335e-14
5.520211963e-14
5.539093583e-14
5.57125562e-14
5.631245885e-14
5.753430061e-14
6.020748249e-14
6.635623892e-14
8.094396437e-14
1.161455051e-13
2.017416879e-13
4.101655957e-13
9.160030745e-13
2.134368237e-12
5.06666398e-12
1.20306539e-11
2.739215992e-11
5.994802174e-11
1.252262575e-10
2.547434246e-10
4.766156926e-10
8.319905147e-10
1.259200489e-09
1.605841001e-09
1.703421971e-09
1.751757242e-09
5.331872387e-09
3.695808291e-08
5.573592194e-07
5.194498312e-06
2.148916565e-05
5.369384769e-05
9.463983898e-05
0.0001317398904
0.0001538242475
0.0001581400593
0.0001490524934
0.0001329084979
0.000114124811
9.607316898e-05
8.010789756e-05
6.677223503e-05
5.58117671e-05
4.685555504e-05
3.953462057e-05
3.35293611e-05
2.858208537e-05
2.451328298e-05
2.111743371e-05
1.829499193e-05
1.591461856e-05
1.392188417e-05
1.222578933e-05
1.077851443e-05
9.547264179e-06
8.489647932e-06
7.576402792e-06
6.78528848e-06
6.097608835e-06
5.497690406e-06
4.97238242e-06
4.510575427e-06
4.102946998e-06
3.74285363e-06
3.425774007e-06
3.142752734e-06
2.888963919e-06
2.661063945e-06
2.459644778e-06
2.276603228e-06
2.110397811e-06
1.962752455e-06
1.826637931e-06
1.704266824e-06
1.592358117e-06
1.489868827e-06
1.396921373e-06
1.310756709e-06
1.232685996e-06
1.160000385e-06
1.093625229e-06
1.032130066e-06
9.749879241e-07
9.228632707e-07
8.730321288e-07
8.287350205e-07
7.863174311e-07
7.470066167e-07
7.108945655e-07
6.762471778e-07
6.447469311e-07
6.151743635e-07
5.867534471e-07
5.610265715e-07
5.367681756e-07
5.134221801e-07
4.919402685e-07
4.719821247e-07
4.527470182e-07
4.343363964e-07
4.178740569e-07
4.01985731e-07
3.866461351e-07
3.721772003e-07
3.590480724e-07
3.463543514e-07
3.340769646e-07
3.222916574e-07
3.117700746e-07
3.015801875e-07
2.91705558e-07
2.821319534e-07
2.732066407e-07
2.649834931e-07
2.569989048e-07
2.492432003e-07
2.417063589e-07
2.345570386e-07
2.280622055e-07
2.217410481e-07
2.15586904e-07
2.095929259e-07
2.037520202e-07
1.983227846e-07
1.932889525e-07
1.883769387e-07
1.835825829e-07
1.789016263e-07
1.743296749e-07
1.698746966e-07
1.659240324e-07
1.620606305e-07
1.582820318e-07
1.545857258e-07
1.509691241e-07
1.474295262e-07
1.439640618e-07
1.408266987e-07
1.378319322e-07
1.34897813e-07
1.32022914e-07
1.292057649e-07
1.264448195e-07
1.237384343e-07
1.210848223e-07
1.186290279e-07
1.163331331e-07
1.14080731e-07
1.118709784e-07
1.097030011e-07
1.075758675e-07
1.054885879e-07
1.034400824e-07
1.01429172e-07
9.950142077e-08
9.77691775e-08
9.606761047e-08
9.43961816e-08
9.275432547e-08
9.114145555e-08
8.955694923e-08
8.800015032e-08
8.647035046e-08
8.496678495e-08
8.348860914e-08
8.210926996e-08
8.08388738e-08
7.958915611e-08
7.835975631e-08
7.715031105e-08
7.596044772e-08
7.478978634e-08
7.36379323e-08
7.250447574e-08
7.138898206e-08
7.029098727e-08
6.920998512e-08
6.814541711e-08
6.720572917e-08
6.62925306e-08
6.539285579e-08
6.450652251e-08
6.363334918e-08
6.277315508e-08
6.192575779e-08
6.10909723e-08
6.026860789e-08
5.945846582e-08
5.866033527e-08
5.787398881e-08
5.709917651e-08
5.633561827e-08
5.558358015e-08
5.493112614e-08
5.42878548e-08
5.365368088e-08
5.302851886e-08
5.241228095e-08
5.180487806e-08
5.120621751e-08
5.061620407e-08
5.003473661e-08
4.946170931e-08
4.889700757e-08
4.834050854e-08
4.779207516e-08
4.725155576e-08
4.671877583e-08
4.619353489e-08
4.567559356e-08
4.51646656e-08
4.471281811e-08
4.427822635e-08
4.384974601e-08
4.342730048e-08
4.301081012e-08
4.26001964e-08
4.219537739e-08
4.179627248e-08
4.140279793e-08
4.101487146e-08
4.063240722e-08
4.025532064e-08
3.988352363e-08
3.951692918e-08
3.915544571e-08
3.879898194e-08
3.844744127e-08
3.810072606e-08
3.775873097e-08
3.742134697e-08
3.708845423e-08
3.675992474e-08
3.643561321e-08
3.613233508e-08
3.585786098e-08
3.558672437e-08
3.531886e-08
3.50542047e-08
3.47926929e-08
3.453426106e-08
3.427884294e-08
3.402637419e-08
3.377678809e-08
3.353001982e-08
3.328600188e-08
3.304466858e-08
3.280595189e-08
3.256978553e-08
3.233610061e-08
3.210482988e-08
3.187590375e-08
3.164925413e-08
3.142481031e-08
3.120250282e-08
3.098225969e-08
3.076400981e-08
3.054767909e-08
3.033319364e-08
3.012047624e-08
2.990944884e-08
2.970002877e-08
2.949213082e-08
2.928566331e-08
2.908052907e-08
2.887662078e-08
2.870087773e-08
2.852690609e-08
2.835377972e-08
2.8181446e-08
2.800985124e-08
2.783893166e-08
2.766877761e-08
2.749906909e-08
2.732990181e-08
2.716125268e-08
2.699307972e-08
2.682534219e-08
2.665800086e-08
2.6491018e-08
2.63243574e-08
2.615798467e-08
2.599186686e-08
2.5825973e-08
2.566027337e-08
2.549474056e-08
2.532934825e-08
2.516407243e-08
2.499888993e-08
2.48337801e-08
2.466872286e-08
2.450370047e-08
2.433869525e-08
2.417369195e-08
2.400867485e-08
2.384363004e-08
2.367854232e-08
2.35133979e-08
2.33481806e-08
2.318287432e-08
2.301745882e-08
2.285191249e-08
2.269541822e-08
2.255360833e-08
2.241166993e-08
2.226962103e-08
2.21274806e-08
2.198527303e-08
2.184302203e-08
2.170072842e-08
2.155838936e-08
2.141624234e-08
2.127416486e-08
2.1132189e-08
2.099034736e-08
2.08486764e-08
2.070721203e-08
2.056599397e-08
2.04250611e-08
2.028445565e-08
2.014421873e-08
2.000439498e-08
1.986502776e-08
1.972616337e-08
1.958784659e-08
1.945012516e-08
1.931304505e-08
1.917665455e-08
1.904099977e-08
1.890612906e-08
1.877208818e-08
1.863892429e-08
1.850668141e-08
1.837540454e-08
1.82451349e-08
1.811591353e-08
1.798777675e-08
1.786075982e-08
1.773489222e-08
1.763037654e-08
1.752723789e-08
1.742518304e-08
1.732425791e-08
1.722450909e-08
1.712598107e-08
1.70287189e-08
1.693276545e-08
1.683816372e-08
1.674495448e-08
1.665317847e-08
1.656287417e-08
1.647407966e-08
1.638683073e-08
1.63011626e-08
1.621710818e-08
1.61346995e-08
1.60539663e-08
1.59749372e-08
1.589763858e-08
1.582209546e-08
1.574833063e-08
1.567636528e-08
1.560621848e-08
1.553790746e-08
1.547144741e-08
1.540685148e-08
1.534413081e-08
1.52832944e-08
1.522434935e-08
1.516730037e-08
1.511215039e-08
1.505889984e-08
1.500754758e-08
1.49580897e-08
1.491052082e-08
1.486483281e-08
1.482101627e-08
1.477905877e-08
1.473894677e-08
1.470066376e-08
1.466419234e-08
1.462951189e-08
1.459660101e-08
1.456543528e-08
1.453598971e-08
1.450823601e-08
1.448214551e-08
1.445768644e-08
1.443482688e-08
1.441353155e-08
1.439376519e-08
1.437548948e-08
1.435866633e-08
1.434325432e-08
1.432921246e-08
1.431649674e-08
1.43050638e-08
1.429486704e-08
1.428586065e-08
1.427799595e-08
1.427122526e-08
1.426549783e-08
1.426076402e-08
1.425697151e-08
1.425406933e-08
1.425200362e-08
1.425072194e-08
1.425016941e-08
1.425029278e-08
1.425103611e-08
1.425234523e-08
1.42541637e-08
1.425643702e-08
1.425910824e-08
1.42621224e-08
1.426542256e-08
1.42689539e-08
1.427265946e-08
1.427648447e-08
1.428037244e-08
1.428426917e-08
1.428811866e-08
1.42918672e-08
1.42954597e-08
1.42988435e-08
1.430196445e-08
1.430477083e-08
1.430720991e-08
1.430923145e-08
1.431078415e-08
1.431181925e-08
1.431228737e-08
1.431214174e-08
1.431133497e-08
1.430982234e-08
1.4307559e-08
1.430450303e-08
1.430061289e-08
1.429585108e-08
1.429018455e-08
1.428359509e-08
1.427590172e-08
1.426742663e-08
1.425764637e-08
1.424678545e-08
1.423460416e-08
1.422118466e-08
1.420668748e-08
1.419107314e-08
1.417433829e-08
1.415648599e-08
1.413752604e-08
1.41174775e-08
1.409636916e-08
1.407424224e-08
1.405115158e-08
1.402716907e-08
1.400238627e-08
1.39769192e-08
1.39509134e-08
1.392455172e-08
1.389806535e-08
1.38717482e-08
1.384597933e-08
1.382125188e-08
1.379821805e-08
1.377774349e-08
1.376098703e-08
1.375623269e-08
1.375591283e-08
1.375558985e-08
1.375526431e-08
1.37549368e-08
1.375460794e-08
1.375427837e-08
1.375394866e-08
1.375361968e-08
1.375329171e-08
1.375296559e-08
1.375264203e-08
1.375232168e-08
1.375200524e-08
1.375169338e-08
1.37513868e-08
1.375108619e-08
1.375079225e-08
1.375050567e-08
1.375022716e-08
1.374995744e-08
1.374969722e-08
1.37494472e-08
1.374920813e-08
1.37489807e-08
1.374876567e-08
1.374856374e-08
1.374837567e-08
1.374820218e-08
1.374804401e-08
1.374790191e-08
1.374777662e-08
1.374766888e-08
1.374757944e-08
1.374750907e-08
1.374745851e-08
1.374742859e-08
1.374742033e-08
1.374743283e-08
1.374746992e-08
1.374753138e-08
1.374761727e-08
1.374772837e-08
1.374786548e-08
1.374802934e-08
1.374822075e-08
1.374844047e-08
1.374868928e-08
1.374896793e-08
1.374927721e-08
1.374961786e-08
1.374999066e-08
1.375039634e-08
1.375083563e-08
1.375130928e-08
1.375181797e-08
1.375236239e-08
1.375294319e-08
1.3753561e-08
1.375421638e-08
1.375490984e-08
1.375564185e-08
1.375641276e-08
1.375722282e-08
1.375807217e-08
1.375896078e-08
1.375988843e-08
1.376085465e-08
1.376185869e-08
1.376289945e-08
1.376397538e-08
1.376508441e-08
1.376622383e-08
1.376739011e-08
1.376857879e-08
1.376978422e-08
1.377099933e-08
1.377221531e-08
1.377342125e-08
1.377460369e-08
1.37757461e-08
1.37768282e-08
1.377782523e-08
1.377870706e-08
1.37794371e-08
1.377997108e-08
1.378025565e-08
)
;

boundaryField
{
    inlet
    {
        type            calculated;
        value           uniform 5.479410245e-14;
    }
    outlet
    {
        type            calculated;
        value           uniform 1.378025565e-08;
    }
    upperWall
    {
        type            empty;
    }
    lowerWall
    {
        type            empty;
    }
    frontAndBack
    {
        type            empty;
    }
}


// ************************************************************************* //
