/*--------------------------------*- C++ -*----------------------------------*\
  =========                 |
  \\      /  F ield         | OpenFOAM: The Open Source CFD Toolbox
   \\    /   O peration     | Website:  https://openfoam.org
    \\  /    A nd           | Version:  9
     \\/     M anipulation  |
\*---------------------------------------------------------------------------*/
FoamFile
{
    format      ascii;
    class       volScalarField;
    location    "0.019";
    object      H2;
}
// * * * * * * * * * * * * * * * * * * * * * * * * * * * * * * * * * * * * * //

dimensions      [0 0 0 0 0 0 0];

internalField   nonuniform List<scalar> 
1000
(
0.014462
0.014462
0.014462
0.014462
0.014462
0.014462
0.014462
0.014462
0.014462
0.014462
0.014462
0.014462
0.014462
0.014462
0.014462
0.014462
0.014462
0.014462
0.014462
0.014462
0.014462
0.014462
0.014462
0.014462
0.014462
0.014462
0.014462
0.014462
0.014462
0.014462
0.014462
0.014462
0.014462
0.014462
0.014462
0.014462
0.014462
0.014462
0.014462
0.014462
0.014462
0.014462
0.014462
0.014462
0.014462
0.014462
0.014462
0.014462
0.014462
0.014462
0.014462
0.014462
0.014462
0.014462
0.014462
0.014462
0.014462
0.014462
0.014462
0.014462
0.014462
0.014462
0.014462
0.014462
0.014462
0.014462
0.014462
0.014462
0.014462
0.014462
0.014462
0.014462
0.014462
0.014462
0.014462
0.014462
0.014462
0.014462
0.014462
0.014462
0.014462
0.014462
0.014462
0.014462
0.014462
0.014462
0.014462
0.014462
0.014462
0.014462
0.014462
0.014462
0.014462
0.014462
0.014462
0.014462
0.014462
0.014462
0.014462
0.014462
0.014462
0.014462
0.014462
0.014462
0.014462
0.014462
0.014462
0.014462
0.014462
0.014462
0.014462
0.014462
0.014462
0.014462
0.014462
0.014462
0.014462
0.014462
0.014462
0.014462
0.014462
0.014462
0.014462
0.014462
0.014462
0.014462
0.014462
0.014462
0.014462
0.014462
0.014462
0.014462
0.014462
0.014462
0.014462
0.014462
0.014462
0.014462
0.014462
0.014462
0.014462
0.014462
0.014462
0.014462
0.014462
0.014462
0.014462
0.014462
0.014462
0.014462
0.014462
0.014462
0.014462
0.014462
0.014462
0.014462
0.014462
0.014462
0.014462
0.014462
0.014462
0.014462
0.014462
0.014462
0.014462
0.014462
0.014462
0.014462
0.014462
0.014462
0.014462
0.014462
0.014462
0.014462
0.014462
0.014462
0.014462
0.014462
0.014462
0.014462
0.014462
0.014462
0.014462
0.014462
0.014462
0.014462
0.014462
0.014462
0.014462
0.014462
0.014462
0.014462
0.014462
0.014462
0.014462
0.014462
0.014462
0.014462
0.014462
0.014462
0.014462
0.014462
0.014462
0.014462
0.014462
0.014462
0.014462
0.014462
0.014462
0.014462
0.014462
0.014462
0.014462
0.014462
0.014462
0.014462
0.014462
0.014462
0.014462
0.014462
0.014462
0.014462
0.014462
0.014462
0.014462
0.014462
0.014462
0.014462
0.014462
0.014462
0.014462
0.014462
0.014462
0.014462
0.014462
0.014462
0.014462
0.014462
0.014462
0.014462
0.014462
0.014462
0.014462
0.014462
0.014462
0.014462
0.014462
0.014462
0.014462
0.014462
0.014462
0.014462
0.014462
0.014462
0.014462
0.014462
0.014462
0.014462
0.014462
0.014462
0.014462
0.014462
0.014462
0.014462
0.014462
0.014462
0.014462
0.014462
0.014462
0.014462
0.014462
0.014462
0.014462
0.014462
0.014462
0.014462
0.014462
0.014462
0.014462
0.014462
0.014462
0.014462
0.014462
0.014462
0.014462
0.014462
0.014462
0.014462
0.014462
0.014462
0.014462
0.014462
0.014462
0.014462
0.014462
0.014462
0.014462
0.014462
0.014462
0.014462
0.014462
0.014462
0.014462
0.014462
0.014462
0.014462
0.014462
0.014462
0.014462
0.014462
0.014462
0.014462
0.014462
0.014462
0.014462
0.014462
0.014462
0.014462
0.014462
0.014462
0.014462
0.014462
0.014462
0.014462
0.014462
0.014462
0.014462
0.014462
0.014462
0.014462
0.014462
0.014462
0.014462
0.014462
0.014462
0.014462
0.014462
0.014462
0.014462
0.014462
0.014462
0.014462
0.014462
0.014462
0.014462
0.014462
0.014462
0.014462
0.014462
0.014462
0.014462
0.014462
0.014462
0.014462
0.014462
0.014462
0.014462
0.014462
0.014462
0.014462
0.014462
0.014462
0.014462
0.014462
0.014462
0.014462
0.014462
0.014462
0.014462
0.014462
0.014462
0.014462
0.014462
0.014462
0.014462
0.014462
0.014462
0.014462
0.014462
0.014462
0.014462
0.014462
0.014462
0.014462
0.014462
0.014462
0.014462
0.014462
0.014462
0.014462
0.014462
0.014462
0.014462
0.014462
0.014462
0.014462
0.014462
0.014462
0.014462
0.014462
0.014462
0.014462
0.014462
0.014462
0.01446199999
0.01446199999
0.01446199999
0.01446199998
0.01446199998
0.01446199997
0.01446199996
0.01446199994
0.01446199992
0.01446199989
0.01446199985
0.0144619998
0.01446199973
0.01446199964
0.01446199951
0.01446199933
0.0144619991
0.01446199877
0.01446199834
0.01446199775
0.01446199695
0.01446199586
0.01446199439
0.0144619924
0.01446198969
0.01446198603
0.01446198106
0.01446197433
0.01446196521
0.01446195284
0.01446193608
0.01446191336
0.01446188256
0.01446184083
0.01446178426
0.01446170759
0.01446160367
0.01446146282
0.01446127192
0.01446101319
0.01446066251
0.01446018722
0.01445954305
0.01445867
0.01445748674
0.0144558831
0.01445370975
0.01445076437
0.0144467728
0.01444136358
0.01443403339
0.01442410037
0.01441064076
0.01439240334
0.01436769373
0.0143342183
0.01428887431
0.01422746852
0.01414434298
0.01403188307
0.01387988523
0.01367477904
0.01339876266
0.01302910582
0.01253838189
0.01189759802
0.01108623806
0.01011010869
0.008985578023
0.007769510116
0.006545543151
0.005339177553
0.004205544944
0.003161571132
0.00226369767
0.00156391496
0.00106883687
0.0007425755148
0.000534821741
0.0004036650698
0.0003191227591
0.0002624090941
0.000222176572
0.0001920691547
0.0001685300628
0.0001494660291
0.0001336146612
0.0001201660936
0.0001086189832
9.856277046e-05
8.97787653e-05
8.202291482e-05
7.517147335e-05
6.907280192e-05
6.363058909e-05
5.876899385e-05
5.440709489e-05
5.048225101e-05
4.694288289e-05
4.374398908e-05
4.084632978e-05
3.821559313e-05
3.582160153e-05
3.363783419e-05
3.164325415e-05
2.982194488e-05
2.814958213e-05
2.660996338e-05
2.519033043e-05
2.388793946e-05
2.26799752e-05
2.155863982e-05
2.052560737e-05
1.955980992e-05
1.866460688e-05
1.78290203e-05
1.704779892e-05
1.631992797e-05
1.563521688e-05
1.499677408e-05
1.439442152e-05
1.383041102e-05
1.329872853e-05
1.279684316e-05
1.232624759e-05
1.187631456e-05
1.145875348e-05
1.105888089e-05
1.068112542e-05
1.032532055e-05
9.983927819e-06
9.663704719e-06
9.359023817e-06
9.066196561e-06
8.791907613e-06
8.530336595e-06
8.278597609e-06
8.040953115e-06
7.815529935e-06
7.598270936e-06
7.389481816e-06
7.194680296e-06
7.00667132e-06
6.825156185e-06
6.651715934e-06
6.488736051e-06
6.331162759e-06
6.178759322e-06
6.031843907e-06
5.894690925e-06
5.761863495e-06
5.633147002e-06
5.508355855e-06
5.3895016e-06
5.276817851e-06
5.167404165e-06
5.06112782e-06
4.957851404e-06
4.858575906e-06
4.764933278e-06
4.67379514e-06
4.585065348e-06
4.498645102e-06
4.414432043e-06
4.334156395e-06
4.257657849e-06
4.18301047e-06
4.110151037e-06
4.039014828e-06
3.969535057e-06
3.901733127e-06
3.838391421e-06
3.776448529e-06
3.715865128e-06
3.656601052e-06
3.598614873e-06
3.541863349e-06
3.486300484e-06
3.433849047e-06
3.383068201e-06
3.333315912e-06
3.284568063e-06
3.236799787e-06
3.189984931e-06
3.144095657e-06
3.099101664e-06
3.056175641e-06
3.014993518e-06
2.97459202e-06
2.934956085e-06
2.89607008e-06
2.857917326e-06
2.820480083e-06
2.783738973e-06
2.747672804e-06
2.712671663e-06
2.67971562e-06
2.647343686e-06
2.615545688e-06
2.584310907e-06
2.553628204e-06
2.523485744e-06
2.493871037e-06
2.464770591e-06
2.436169823e-06
2.408052601e-06
2.38110093e-06
2.355402621e-06
2.330123052e-06
2.305254962e-06
2.280791017e-06
2.256723682e-06
2.23304526e-06
2.209747748e-06
2.186822815e-06
2.1642616e-06
2.142054593e-06
2.120191335e-06
2.098660147e-06
2.078542374e-06
2.058847809e-06
2.039444635e-06
2.020329159e-06
2.00149762e-06
1.982946219e-06
1.964671083e-06
1.946668258e-06
1.928933648e-06
1.911462972e-06
1.894251678e-06
1.877294843e-06
1.860587049e-06
1.844122206e-06
1.827899667e-06
1.81286645e-06
1.798044963e-06
1.783433304e-06
1.769029536e-06
1.754831656e-06
1.740837621e-06
1.727045296e-06
1.713452482e-06
1.700056843e-06
1.686855929e-06
1.67384709e-06
1.661027482e-06
1.648393932e-06
1.635942929e-06
1.623670435e-06
1.611571809e-06
1.599641508e-06
1.5878729e-06
1.576869838e-06
1.566147652e-06
1.555576388e-06
1.545154161e-06
1.534879004e-06
1.524748974e-06
1.514762044e-06
1.504916216e-06
1.495209416e-06
1.485639604e-06
1.476204653e-06
1.466902465e-06
1.457730858e-06
1.448687675e-06
1.439770647e-06
1.430977513e-06
1.42230588e-06
1.41375333e-06
1.405317253e-06
1.396994952e-06
1.388783458e-06
1.3806796e-06
1.372679781e-06
1.364992921e-06
1.357714778e-06
1.350525125e-06
1.343422235e-06
1.33640443e-06
1.329469971e-06
1.32261717e-06
1.315844266e-06
1.30914955e-06
1.302531247e-06
1.295987636e-06
1.289516921e-06
1.283117356e-06
1.276787135e-06
1.270524495e-06
1.264327606e-06
1.258194681e-06
1.252123873e-06
1.246113371e-06
1.240161299e-06
1.234265812e-06
1.228424999e-06
1.222636972e-06
1.216899765e-06
1.211211416e-06
1.205569876e-06
1.199973074e-06
1.194418818e-06
1.188904844e-06
1.183428721e-06
1.177987869e-06
1.172579437e-06
1.167568089e-06
1.162594203e-06
1.157644422e-06
1.152717243e-06
1.147811134e-06
1.142924274e-06
1.138059252e-06
1.133206912e-06
1.128369997e-06
1.12354785e-06
1.118739272e-06
1.1139431e-06
1.109158216e-06
1.104383544e-06
1.09961805e-06
1.094860755e-06
1.090110719e-06
1.085367061e-06
1.080628933e-06
1.075895556e-06
1.071166181e-06
1.066440125e-06
1.06171673e-06
1.05699541e-06
1.052275596e-06
1.047556783e-06
1.042838472e-06
1.038120231e-06
1.033401617e-06
1.028682234e-06
1.023961656e-06
1.019239492e-06
1.014515285e-06
1.009788579e-06
1.005058801e-06
1.000325336e-06
9.957237218e-07
9.913372046e-07
9.869467621e-07
9.825529567e-07
9.78156381e-07
9.737577943e-07
9.693579358e-07
9.64956835e-07
9.605544077e-07
9.561580108e-07
9.517638554e-07
9.473729392e-07
9.429862745e-07
9.386049943e-07
9.342302138e-07
9.298631661e-07
9.255050587e-07
9.211572019e-07
9.168208723e-07
9.124974547e-07
9.081882946e-07
9.038948287e-07
8.996184455e-07
8.953606262e-07
8.911227963e-07
8.869064532e-07
8.827130268e-07
8.785440157e-07
8.744008387e-07
8.702849574e-07
8.66197736e-07
8.621405693e-07
8.581147347e-07
8.541215033e-07
8.501620007e-07
8.462373186e-07
8.423483694e-07
8.38881628e-07
8.354559855e-07
8.320665164e-07
8.287147481e-07
8.254022306e-07
8.221304432e-07
8.189008835e-07
8.157149766e-07
8.125741515e-07
8.094797624e-07
8.064331631e-07
8.034356311e-07
8.004884309e-07
7.975927502e-07
7.947497576e-07
7.919605449e-07
7.892261739e-07
7.865476299e-07
7.839258618e-07
7.813617428e-07
7.788561001e-07
7.764096877e-07
7.740232061e-07
7.71697284e-07
7.694324899e-07
7.672293235e-07
7.650882166e-07
7.630095346e-07
7.609935704e-07
7.59040555e-07
7.571506385e-07
7.553239123e-07
7.535603849e-07
7.518600118e-07
7.502226566e-07
7.486481339e-07
7.47136167e-07
7.456864366e-07
7.442985232e-07
7.429719694e-07
7.417062204e-07
7.405006904e-07
7.393546877e-07
7.382674943e-07
7.372382915e-07
7.362662422e-07
7.353503998e-07
7.344898044e-07
7.336833939e-07
7.329301008e-07
7.322287469e-07
7.315781541e-07
7.309770424e-07
7.304241401e-07
7.299180657e-07
7.294574506e-07
7.290408274e-07
7.286667498e-07
7.283336642e-07
7.280400434e-07
7.277842649e-07
7.275647402e-07
7.273797781e-07
7.272277254e-07
7.271068399e-07
7.270154243e-07
7.269516848e-07
7.269138767e-07
7.269001728e-07
7.269088011e-07
7.269379007e-07
7.269856691e-07
7.270502293e-07
7.27129768e-07
7.272223916e-07
7.273262727e-07
7.27439518e-07
7.275603053e-07
7.276867412e-07
7.278170052e-07
7.2794922e-07
7.280815851e-07
7.282122391e-07
7.283393981e-07
7.284612322e-07
7.28575992e-07
7.286818791e-07
7.287771762e-07
7.288601319e-07
7.289290784e-07
7.289823126e-07
7.29018216e-07
7.290351492e-07
7.290315597e-07
7.29005875e-07
7.289566114e-07
7.288822805e-07
7.287814917e-07
7.286528664e-07
7.284951616e-07
7.28307281e-07
7.280886227e-07
7.278331724e-07
7.275516455e-07
7.272266414e-07
7.268656281e-07
7.264606469e-07
7.260144294e-07
7.255323083e-07
7.250129757e-07
7.244563221e-07
7.238624517e-07
7.232316929e-07
7.225646813e-07
7.218623754e-07
7.211261471e-07
7.203578208e-07
7.195597868e-07
7.18735089e-07
7.178875844e-07
7.170221093e-07
7.161447403e-07
7.152631592e-07
7.143871314e-07
7.135292516e-07
7.127059028e-07
7.119387537e-07
7.112565647e-07
7.106978376e-07
7.10537653e-07
7.105247015e-07
7.105116234e-07
7.104984417e-07
7.104851804e-07
7.104718644e-07
7.104585198e-07
7.104451692e-07
7.104318484e-07
7.104185684e-07
7.104053635e-07
7.103922619e-07
7.103792907e-07
7.103664775e-07
7.1035385e-07
7.103414362e-07
7.10329264e-07
7.103173618e-07
7.103057578e-07
7.102944808e-07
7.102835594e-07
7.102730225e-07
7.102628991e-07
7.102532185e-07
7.102440099e-07
7.102353027e-07
7.102271266e-07
7.102195112e-07
7.102124863e-07
7.102060819e-07
7.10200328e-07
7.101952547e-07
7.101908922e-07
7.101872709e-07
7.101844212e-07
7.101823741e-07
7.101811624e-07
7.101808279e-07
7.101813342e-07
7.10182836e-07
7.101853245e-07
7.101888023e-07
7.101933012e-07
7.101988527e-07
7.102054879e-07
7.102132384e-07
7.102221351e-07
7.102322096e-07
7.102434927e-07
7.102560158e-07
7.102698094e-07
7.102849043e-07
7.103013307e-07
7.103191186e-07
7.10338297e-07
7.103588946e-07
7.10380939e-07
7.104044566e-07
7.104294724e-07
7.104560096e-07
7.104840891e-07
7.10513729e-07
7.10544944e-07
7.105777447e-07
7.106121361e-07
7.106481172e-07
7.106856788e-07
7.107248025e-07
7.107654575e-07
7.108075993e-07
7.108511653e-07
7.108960717e-07
7.109422081e-07
7.109894326e-07
7.110375639e-07
7.110863734e-07
7.111355748e-07
7.111848115e-07
7.112336417e-07
7.112815206e-07
7.113277782e-07
7.113715939e-07
7.114119653e-07
7.114476718e-07
7.11477232e-07
7.114988536e-07
7.115103763e-07
)
;

boundaryField
{
    inlet
    {
        type            calculated;
        value           uniform 0.014462;
    }
    outlet
    {
        type            calculated;
        value           uniform 7.115103763e-07;
    }
    upperWall
    {
        type            empty;
    }
    lowerWall
    {
        type            empty;
    }
    frontAndBack
    {
        type            empty;
    }
}


// ************************************************************************* //
