/*--------------------------------*- C++ -*----------------------------------*\
  =========                 |
  \\      /  F ield         | OpenFOAM: The Open Source CFD Toolbox
   \\    /   O peration     | Website:  https://openfoam.org
    \\  /    A nd           | Version:  9
     \\/     M anipulation  |
\*---------------------------------------------------------------------------*/
FoamFile
{
    format      ascii;
    class       volScalarField;
    location    "0.019";
    object      H2O;
}
// * * * * * * * * * * * * * * * * * * * * * * * * * * * * * * * * * * * * * //

dimensions      [0 0 0 0 0 0 0];

internalField   nonuniform List<scalar> 
1000
(
1.526372869e-28
0
0
3.638908824e-29
7.890121473e-29
8.563495394e-29
2.89743743e-28
5.600596584e-28
5.377978203e-28
3.167538231e-28
4.504754124e-28
4.765878213e-28
6.402976295e-28
8.21791468e-28
8.617468654e-28
9.227218677e-28
5.739120871e-28
5.556256597e-28
9.983695265e-28
1.068844137e-27
1.39320103e-27
1.047730076e-27
8.718419952e-28
1.147315206e-27
1.049158969e-27
9.966021436e-28
1.08486872e-27
4.318240691e-28
0
2.007647177e-28
6.185272977e-30
5.128748196e-29
1.473231744e-28
2.967540737e-28
5.602091457e-28
6.282194489e-28
8.929707973e-28
6.062062109e-28
3.877980238e-28
2.136430255e-28
2.616623082e-28
2.429395047e-28
6.063783574e-28
9.909352432e-28
1.260470177e-27
9.295269962e-28
5.248960182e-28
4.022479507e-28
0
7.528093854e-29
2.574368638e-28
2.083054974e-28
9.006852027e-28
1.100891293e-27
1.024917061e-27
1.037105739e-27
1.004879328e-27
6.366301389e-28
4.39141561e-28
5.279053145e-28
4.523149654e-28
7.300718069e-28
3.11813033e-28
2.80971608e-28
5.826074157e-28
7.224081601e-28
9.827856097e-28
1.003917153e-27
7.798371877e-28
6.702280221e-28
4.238439034e-28
3.560614351e-28
0
3.572055048e-28
9.830691398e-28
1.253421327e-27
1.0419418e-27
8.184321507e-28
8.429519616e-28
7.962265083e-28
9.107192992e-28
4.221909166e-28
5.296559428e-28
6.085051673e-28
8.144047534e-28
1.350875487e-27
1.313480778e-27
1.386061837e-27
1.138464197e-27
8.744927932e-28
5.022483164e-28
4.285451766e-28
6.265959171e-28
9.85829536e-28
9.796235089e-28
8.89298523e-28
8.947121682e-28
9.819980748e-28
9.812833256e-28
7.048407482e-28
9.605065711e-28
1.235936224e-27
7.914768202e-28
1.17401523e-27
1.15611527e-27
1.001158181e-27
1.014066703e-27
9.993007477e-28
8.648157526e-28
9.065533183e-28
6.894865588e-28
7.599716042e-28
9.186022507e-28
8.939631239e-28
9.74891701e-28
8.275220157e-28
7.176812527e-28
9.871487512e-28
9.7785776e-28
1.405483005e-27
1.201939301e-27
6.384289081e-28
4.309552655e-28
2.362361733e-28
3.378521328e-28
6.77642455e-28
9.053736251e-28
3.157653489e-28
3.010832108e-28
3.89439515e-28
3.013392003e-28
3.597760679e-28
1.05848056e-27
1.349278055e-27
1.695793211e-27
1.329074472e-27
1.374995768e-27
1.171159674e-27
1.096608474e-27
7.010879149e-28
7.425313042e-28
1.070935231e-27
1.134785235e-27
1.110876384e-27
1.321951455e-27
1.218813404e-27
1.219429439e-27
1.021524352e-27
1.293069903e-27
5.468225743e-28
7.325585098e-28
7.262750274e-28
1.763862582e-27
1.686746153e-27
1.219556321e-27
1.279736069e-27
1.552379776e-27
1.915896515e-27
2.624622591e-27
2.642700717e-27
2.599194938e-27
2.396556801e-27
1.977358801e-27
1.569400154e-27
1.267302892e-27
1.227814017e-27
1.23813089e-27
1.158530325e-27
1.426113239e-27
1.439094776e-27
1.555768611e-27
1.695686091e-27
1.594408167e-27
1.643890444e-27
1.478971035e-27
1.372290447e-27
1.310231904e-27
1.373380702e-27
1.331961425e-27
1.417049989e-27
8.173413417e-28
7.278000576e-28
7.861525452e-28
1.124163625e-27
1.86341369e-27
2.223081669e-27
2.159254176e-27
2.101364408e-27
1.849484888e-27
1.854170212e-27
1.265320033e-27
1.151288766e-27
9.579015952e-28
9.841695052e-28
8.186126294e-28
1.043654313e-27
8.128878371e-28
8.738197444e-28
8.527637464e-28
8.016864515e-28
6.675453774e-28
4.12988359e-28
5.519019097e-28
4.064411081e-28
1.351498257e-28
3.019012842e-28
8.522736816e-28
1.261908897e-27
1.608367575e-27
1.599456759e-27
1.456942057e-27
1.639913483e-27
1.70214551e-27
1.298426227e-27
1.527807657e-27
1.593090711e-27
1.656820727e-27
1.997049587e-27
2.135372079e-27
1.769921984e-27
1.291889608e-27
1.474155558e-27
1.444187843e-27
1.355723655e-27
1.292609089e-27
1.27422937e-27
1.300833404e-27
1.459904209e-27
1.346861138e-27
1.148600657e-27
1.394901208e-27
1.158887011e-27
1.03040248e-27
1.27601722e-27
1.26087061e-27
1.234379317e-27
9.488012568e-28
1.167592041e-27
8.967000523e-28
8.293897042e-28
1.326228603e-27
1.92287466e-27
2.222510222e-27
2.109104386e-27
1.915003112e-27
1.487354586e-27
1.404015426e-27
1.459517103e-27
1.549457548e-27
2.345268751e-27
2.441822794e-27
2.328339407e-27
2.101911687e-27
1.549270145e-27
1.063324801e-27
7.919642587e-28
9.734656939e-28
1.489062558e-27
1.335320591e-27
1.439964372e-27
1.238035213e-27
1.489109069e-27
1.356045887e-27
1.394547864e-27
1.102519437e-27
8.953438484e-28
5.836787404e-28
1.101252213e-27
1.2161708e-27
1.091100878e-27
1.005615235e-27
9.616618318e-28
1.375858238e-27
1.530967265e-27
1.711236043e-27
1.885376904e-27
1.671607489e-27
1.748528894e-27
1.542769378e-27
1.404259091e-27
2.020543846e-27
2.540777209e-27
2.200467345e-27
2.308690713e-27
2.080955933e-27
1.636726399e-27
1.643923588e-27
1.448367803e-27
2.03481708e-27
1.692581006e-27
1.906871732e-27
1.818501211e-27
1.605298032e-27
1.421569233e-27
1.249275289e-27
1.007912661e-27
1.063597118e-27
1.04262212e-27
8.884425716e-28
6.700547721e-28
7.391901367e-28
9.088239298e-28
1.126024323e-27
1.198953303e-27
1.201452793e-27
9.564070698e-28
1.030851094e-27
7.162621438e-28
8.207826668e-28
9.148636887e-28
9.287566543e-28
1.105033849e-27
1.103047238e-27
1.409907455e-27
1.606415532e-27
1.811543071e-27
1.541243132e-27
1.787746325e-27
1.000500833e-27
1.373429444e-27
1.309186617e-27
9.937057739e-28
9.689196957e-28
8.250605904e-28
9.543926559e-28
9.032061682e-28
1.021845394e-27
9.572716218e-28
7.026919004e-28
7.394182383e-28
1.210967365e-27
1.577146018e-27
1.454045053e-27
1.321941786e-27
1.245964283e-27
1.669444687e-27
1.74329097e-27
1.63850835e-27
2.041645795e-27
1.899566319e-27
1.935689972e-27
1.969062597e-27
1.699411738e-27
2.000861139e-27
1.971262589e-27
2.021856724e-27
2.068044017e-27
2.090582782e-27
2.040105843e-27
1.576975074e-27
1.542804983e-27
1.461327608e-27
1.969429489e-27
2.076336269e-27
1.99504387e-27
2.145286608e-27
1.980963616e-27
1.657075722e-27
1.733198411e-27
1.518809389e-27
1.826503337e-27
2.329262017e-27
2.963435664e-27
3.226661615e-27
3.487272406e-27
4.183895839e-27
5.728022409e-27
7.896734564e-27
1.066491581e-26
1.472909542e-26
2.016223608e-26
2.704219019e-26
3.700198004e-26
5.040374823e-26
6.824020101e-26
9.235543131e-26
1.257121716e-25
1.708264698e-25
2.319265118e-25
3.149166629e-25
4.267464205e-25
5.791905535e-25
7.844710043e-25
1.063364229e-24
1.442415421e-24
1.95534753e-24
2.651966517e-24
3.596420789e-24
4.877686426e-24
6.61616691e-24
8.974777003e-24
1.217236458e-23
1.651000003e-23
2.239230522e-23
3.036925041e-23
4.118794258e-23
5.585936542e-23
7.575564525e-23
1.027361855e-22
1.393227475e-22
1.889351036e-22
2.562085346e-22
3.474298558e-22
4.711206402e-22
6.388342463e-22
8.662343162e-22
1.17455828e-21
1.592596856e-21
2.159381406e-21
2.927824554e-21
3.969659726e-21
5.382128721e-21
7.297055211e-21
9.893139011e-21
1.341262606e-20
1.818390094e-20
2.465212704e-20
3.342079618e-20
4.530812289e-20
6.142366796e-20
8.327272717e-20
1.128992542e-19
1.530835229e-19
2.076208213e-19
2.817287137e-19
3.826798629e-19
5.208810574e-19
7.119415906e-19
9.811346318e-19
1.373978758e-18
1.982971493e-18
3.017658627e-18
4.991926737e-18
9.108423683e-18
1.823856842e-17
3.947978277e-17
9.045260221e-17
2.150582199e-16
5.229099629e-16
1.288032351e-15
3.19596983e-15
7.962564386e-15
1.988359605e-14
4.971573815e-14
1.24395704e-13
3.11376481e-13
7.795501843e-13
1.951710734e-12
4.885950658e-12
1.222931219e-11
3.060116405e-11
7.654674133e-11
1.914015643e-10
4.783864316e-10
1.195140854e-09
2.984454933e-09
7.449394746e-09
1.858637514e-08
4.635489283e-08
1.155666078e-07
2.880129492e-07
6.969768171e-07
1.662132448e-06
3.945684413e-06
9.374473111e-06
2.234776315e-05
5.353588178e-05
0.0001288656887
0.0003111024656
0.0007489733214
0.001776275115
0.004062839148
0.008724640736
0.01677588429
0.02845193485
0.04267554073
0.05793527545
0.07306705096
0.08684896027
0.09813913978
0.1065179367
0.1123189384
0.1162030246
0.1188014077
0.1205928891
0.1218785233
0.1228402235
0.1235863509
0.1241831344
0.1246720322
0.1250800796
0.1254255859
0.125721532
0.1259772997
0.1262000422
0.1263953502
0.1265676574
0.1267204711
0.126856685
0.1269786962
0.1270884782
0.127187682
0.1272776995
0.1273597079
0.1274347051
0.1275035398
0.1275669351
0.1276255093
0.127679794
0.1277302426
0.1277772366
0.127821107
0.127862144
0.127900601
0.1279366871
0.1279705911
0.1280024821
0.1280325003
0.1280607783
0.1280874293
0.1281125572
0.1281362576
0.1281586155
0.1281797132
0.1281996238
0.1282184187
0.1282361636
0.128252921
0.1282687524
0.1282837132
0.1282978626
0.1283112496
0.1283239259
0.1283359403
0.128347337
0.128358162
0.1283684557
0.1283782566
0.1283876042
0.1283965326
0.1284050727
0.1284132559
0.1284211099
0.128428659
0.1284359274
0.1284429383
0.1284497093
0.1284562575
0.1284625996
0.1284687505
0.1284747212
0.1284805223
0.1284861641
0.1284916564
0.1284970052
0.1285022162
0.1285072951
0.1285122478
0.128517079
0.1285217915
0.1285263881
0.128530872
0.1285352465
0.128539515
0.1285436791
0.1285477407
0.1285517021
0.1285555661
0.1285593359
0.128563014
0.1285666025
0.1285701033
0.1285735189
0.1285768522
0.1285801063
0.1285832849
0.1285863903
0.1285894248
0.1285923912
0.1285952921
0.1285981306
0.12860091
0.1286036338
0.1286063045
0.1286089243
0.1286114957
0.1286140209
0.1286165023
0.1286189423
0.1286213434
0.1286237082
0.1286260386
0.1286283361
0.1286306022
0.1286328381
0.1286350452
0.1286372248
0.1286393783
0.1286415068
0.1286436118
0.1286456945
0.1286477554
0.1286497949
0.1286518136
0.1286538118
0.1286557899
0.1286577484
0.1286596875
0.1286616079
0.1286635101
0.1286653946
0.1286672618
0.1286691118
0.1286709445
0.1286727601
0.1286745585
0.1286763399
0.1286781043
0.1286798519
0.1286815829
0.1286832974
0.1286849959
0.1286866785
0.1286883459
0.128689998
0.1286916349
0.1286932565
0.1286948628
0.1286964539
0.1286980298
0.1286995906
0.1287011362
0.1287026668
0.1287041825
0.1287056833
0.1287071695
0.1287086412
0.1287100986
0.1287115421
0.1287129716
0.128714387
0.1287157882
0.1287171751
0.1287185477
0.128719906
0.1287212497
0.1287225789
0.1287238935
0.1287251934
0.1287264786
0.128727749
0.1287290046
0.1287302453
0.1287314711
0.1287326822
0.1287338784
0.12873506
0.128736227
0.1287373793
0.1287385167
0.1287396392
0.1287407466
0.128741839
0.1287429162
0.1287439782
0.128745025
0.1287460564
0.1287470725
0.1287480732
0.1287490585
0.1287500284
0.128750983
0.1287519222
0.128752846
0.1287537547
0.1287546481
0.1287555264
0.1287563898
0.1287572383
0.1287580722
0.1287588916
0.1287596965
0.1287604871
0.1287612635
0.1287620256
0.1287627735
0.1287635075
0.1287642275
0.1287649337
0.1287656263
0.1287663052
0.1287669708
0.128767623
0.1287682621
0.1287688882
0.1287695016
0.1287701023
0.1287706905
0.1287712665
0.1287718305
0.1287723826
0.1287729231
0.1287734522
0.1287739701
0.1287744772
0.1287749736
0.1287754597
0.1287759358
0.1287764021
0.1287768591
0.128777307
0.1287777462
0.1287781771
0.1287786
0.1287790151
0.1287794227
0.1287798232
0.1287802169
0.128780604
0.128780985
0.1287813601
0.1287817297
0.1287820942
0.1287824539
0.1287828091
0.1287831602
0.1287835076
0.1287838515
0.1287841924
0.1287845307
0.1287848666
0.1287852006
0.1287855329
0.1287858641
0.1287861944
0.1287865243
0.128786854
0.128787184
0.1287875146
0.1287878461
0.1287881791
0.1287885137
0.1287888504
0.1287891896
0.1287895316
0.1287898769
0.1287902257
0.1287905785
0.1287909356
0.1287912973
0.128791664
0.1287920357
0.128792413
0.1287927958
0.1287931846
0.1287935795
0.1287939808
0.1287943887
0.1287948034
0.128795225
0.1287956538
0.1287960898
0.1287965333
0.1287969843
0.1287974431
0.1287979097
0.1287983841
0.1287988666
0.1287993572
0.1287998559
0.1288003627
0.1288008778
0.1288014012
0.1288019327
0.1288024726
0.1288030207
0.1288035769
0.1288041414
0.128804714
0.1288052947
0.1288058834
0.12880648
0.1288070845
0.1288076968
0.1288083168
0.1288089443
0.1288095791
0.1288102211
0.1288108699
0.1288115254
0.1288121874
0.1288128555
0.1288135295
0.1288142092
0.1288148943
0.1288155843
0.1288162792
0.1288169785
0.1288176819
0.1288183892
0.1288190999
0.1288198137
0.1288205303
0.1288212493
0.1288219703
0.1288226931
0.1288234171
0.1288241421
0.1288248677
0.1288255934
0.1288263189
0.1288270439
0.1288277678
0.1288284904
0.1288292112
0.1288299298
0.1288306459
0.1288313591
0.1288320689
0.1288327751
0.1288334771
0.1288341747
0.1288348675
0.128835555
0.128836237
0.128836913
0.1288375828
0.1288382458
0.128838902
0.1288395507
0.1288401919
0.1288408251
0.1288414499
0.1288420662
0.1288426737
0.1288432719
0.1288438607
0.1288444398
0.128845009
0.1288455679
0.1288461164
0.1288466543
0.1288471812
0.1288476971
0.1288482017
0.1288486949
0.1288491764
0.1288496463
0.1288501042
0.1288505501
0.1288509838
0.1288514054
0.1288518146
0.1288522114
0.1288525957
0.1288529676
0.1288533268
0.1288536736
0.1288540077
0.1288543293
0.1288546383
0.1288549348
0.1288552188
0.1288554904
0.1288557496
0.1288559965
0.1288562313
0.1288564539
0.1288566646
0.1288568634
0.1288570506
0.1288572262
0.1288573904
0.1288575434
0.1288576853
0.1288578164
0.1288579369
0.128858047
0.1288581469
0.1288582368
0.128858317
0.1288583876
0.1288584491
0.1288585016
0.1288585454
0.1288585808
0.128858608
0.1288586274
0.1288586391
0.1288586435
0.1288586415
0.1288586333
0.1288586185
0.1288585975
0.1288585705
0.1288585378
0.1288584997
0.1288584563
0.1288584079
0.1288583547
0.1288582968
0.1288582342
0.1288581672
0.1288580955
0.1288580193
0.1288579382
0.1288578519
0.1288577601
0.128857662
0.1288575565
0.1288574423
0.1288573174
0.1288571791
0.1288569993
0.1288568027
0.1288566042
0.1288564041
0.1288562028
0.1288560007
0.1288557981
0.1288555955
0.1288553933
0.1288551917
0.1288549912
0.1288547924
0.1288545955
0.128854401
0.1288542093
0.1288540209
0.1288538361
0.1288536555
0.1288534793
0.1288533082
0.1288531424
0.1288529824
0.1288528288
0.1288526818
0.1288525421
0.1288524099
0.1288522858
0.1288521702
0.1288520636
0.1288519664
0.128851879
0.128851802
0.1288517358
0.1288516808
0.1288516376
0.1288516065
0.1288515881
0.128851583
0.1288515907
0.1288516135
0.1288516513
0.1288517041
0.1288517724
0.1288518566
0.1288519573
0.128852075
0.12885221
0.128852363
0.1288525342
0.1288527243
0.1288529337
0.1288531628
0.1288534121
0.1288536821
0.1288539732
0.1288542859
0.1288546205
0.1288549775
0.1288553572
0.12885576
0.1288561862
0.1288566361
0.1288571099
0.1288576078
0.1288581298
0.128858676
0.1288592461
0.12885984
0.1288604571
0.1288610968
0.128861758
0.1288624397
0.12886314
0.1288638568
0.1288645874
0.1288653282
0.1288660751
0.1288668224
0.1288675636
0.1288682904
0.1288689925
0.1288696576
0.1288702704
0.1288708124
0.1288712611
0.1288715893
0.1288717642
)
;

boundaryField
{
    inlet
    {
        type            calculated;
        value           uniform 0;
    }
    outlet
    {
        type            calculated;
        value           uniform 0.1288717642;
    }
    upperWall
    {
        type            empty;
    }
    lowerWall
    {
        type            empty;
    }
    frontAndBack
    {
        type            empty;
    }
}


// ************************************************************************* //
