/*--------------------------------*- C++ -*----------------------------------*\
  =========                 |
  \\      /  F ield         | OpenFOAM: The Open Source CFD Toolbox
   \\    /   O peration     | Website:  https://openfoam.org
    \\  /    A nd           | Version:  9
     \\/     M anipulation  |
\*---------------------------------------------------------------------------*/
FoamFile
{
    format      ascii;
    class       volScalarField;
    location    "0.019";
    object      H2O2;
}
// * * * * * * * * * * * * * * * * * * * * * * * * * * * * * * * * * * * * * //

dimensions      [0 0 0 0 0 0 0];

internalField   nonuniform List<scalar> 
1000
(
5.197878791e-12
5.197878791e-12
5.197878791e-12
5.197878791e-12
5.197878791e-12
5.197878791e-12
5.197878791e-12
5.197878791e-12
5.197878791e-12
5.197878791e-12
5.197878791e-12
5.197878791e-12
5.197878791e-12
5.197878791e-12
5.197878791e-12
5.197878791e-12
5.197878791e-12
5.197878791e-12
5.197878791e-12
5.197878791e-12
5.197878791e-12
5.197878791e-12
5.197878791e-12
5.197878791e-12
5.197878791e-12
5.197878791e-12
5.197878791e-12
5.197878791e-12
5.197878791e-12
5.197878791e-12
5.197878791e-12
5.197878791e-12
5.197878791e-12
5.197878791e-12
5.197878791e-12
5.197878791e-12
5.197878791e-12
5.197878791e-12
5.197878791e-12
5.197878791e-12
5.197878791e-12
5.197878791e-12
5.197878791e-12
5.197878791e-12
5.197878791e-12
5.197878791e-12
5.197878791e-12
5.197878791e-12
5.197878791e-12
5.197878791e-12
5.197878791e-12
5.197878791e-12
5.197878791e-12
5.197878791e-12
5.197878791e-12
5.197878791e-12
5.197878791e-12
5.197878791e-12
5.197878791e-12
5.197878791e-12
5.197878791e-12
5.197878791e-12
5.197878791e-12
5.197878791e-12
5.197878791e-12
5.197878791e-12
5.197878791e-12
5.197878791e-12
5.197878791e-12
5.197878791e-12
5.197878791e-12
5.197878791e-12
5.197878791e-12
5.197878791e-12
5.197878791e-12
5.197878791e-12
5.197878791e-12
5.197878791e-12
5.197878791e-12
5.197878791e-12
5.197878791e-12
5.197878791e-12
5.197878791e-12
5.197878791e-12
5.197878791e-12
5.197878791e-12
5.197878791e-12
5.197878791e-12
5.197878791e-12
5.197878791e-12
5.197878791e-12
5.197878791e-12
5.197878791e-12
5.197878791e-12
5.197878791e-12
5.197878791e-12
5.197878791e-12
5.197878791e-12
5.197878791e-12
5.197878791e-12
5.197878791e-12
5.197878791e-12
5.197878791e-12
5.197878791e-12
5.197878791e-12
5.197878791e-12
5.197878791e-12
5.197878791e-12
5.197878791e-12
5.197878791e-12
5.197878791e-12
5.197878791e-12
5.197878791e-12
5.197878791e-12
5.197878791e-12
5.197878791e-12
5.197878791e-12
5.197878791e-12
5.197878791e-12
5.197878791e-12
5.197878791e-12
5.197878791e-12
5.197878791e-12
5.197878791e-12
5.197878791e-12
5.197878791e-12
5.197878791e-12
5.197878791e-12
5.197878791e-12
5.197878791e-12
5.197878791e-12
5.197878791e-12
5.197878791e-12
5.197878791e-12
5.197878791e-12
5.197878791e-12
5.197878791e-12
5.197878791e-12
5.197878791e-12
5.197878791e-12
5.197878791e-12
5.197878791e-12
5.197878791e-12
5.197878791e-12
5.197878791e-12
5.197878791e-12
5.197878791e-12
5.197878791e-12
5.197878791e-12
5.197878791e-12
5.197878791e-12
5.197878791e-12
5.197878791e-12
5.197878791e-12
5.197878791e-12
5.197878791e-12
5.197878791e-12
5.197878791e-12
5.197878791e-12
5.197878791e-12
5.197878791e-12
5.197878791e-12
5.197878791e-12
5.197878791e-12
5.197878791e-12
5.197878791e-12
5.197878791e-12
5.197878791e-12
5.197878791e-12
5.197878791e-12
5.197878791e-12
5.197878791e-12
5.197878791e-12
5.197878791e-12
5.197878791e-12
5.197878791e-12
5.197878791e-12
5.197878791e-12
5.197878791e-12
5.197878791e-12
5.197878791e-12
5.197878791e-12
5.197878791e-12
5.197878791e-12
5.197878791e-12
5.197878791e-12
5.197878791e-12
5.197878791e-12
5.197878791e-12
5.197878791e-12
5.197878791e-12
5.197878791e-12
5.197878791e-12
5.197878791e-12
5.197878791e-12
5.197878791e-12
5.197878791e-12
5.197878791e-12
5.197878791e-12
5.197878791e-12
5.197878791e-12
5.197878791e-12
5.197878791e-12
5.197878791e-12
5.197878791e-12
5.197878791e-12
5.197878791e-12
5.197878791e-12
5.197878791e-12
5.197878791e-12
5.197878791e-12
5.197878791e-12
5.197878791e-12
5.197878791e-12
5.197878791e-12
5.197878791e-12
5.197878791e-12
5.197878791e-12
5.197878791e-12
5.197878791e-12
5.197878791e-12
5.197878791e-12
5.197878791e-12
5.197878791e-12
5.197878791e-12
5.197878791e-12
5.197878791e-12
5.197878791e-12
5.197878791e-12
5.197878791e-12
5.197878791e-12
5.197878791e-12
5.197878791e-12
5.197878791e-12
5.197878791e-12
5.197878791e-12
5.197878791e-12
5.197878791e-12
5.197878791e-12
5.197878791e-12
5.197878791e-12
5.197878791e-12
5.197878791e-12
5.197878791e-12
5.197878791e-12
5.197878791e-12
5.197878791e-12
5.197878791e-12
5.197878791e-12
5.197878791e-12
5.197878791e-12
5.197878791e-12
5.197878791e-12
5.197878791e-12
5.197878791e-12
5.197878791e-12
5.197878791e-12
5.197878791e-12
5.197878791e-12
5.197878791e-12
5.197878791e-12
5.197878791e-12
5.197878791e-12
5.197878791e-12
5.197878791e-12
5.197878791e-12
5.197878791e-12
5.197878791e-12
5.197878791e-12
5.197878791e-12
5.197878791e-12
5.197878791e-12
5.197878791e-12
5.197878791e-12
5.197878791e-12
5.197878791e-12
5.197878791e-12
5.197878791e-12
5.197878791e-12
5.197878791e-12
5.197878791e-12
5.197878791e-12
5.197878791e-12
5.197878791e-12
5.197878791e-12
5.197878791e-12
5.197878791e-12
5.197878791e-12
5.197878791e-12
5.197878791e-12
5.197878791e-12
5.197878791e-12
5.197878791e-12
5.197878791e-12
5.197878791e-12
5.197878791e-12
5.197878791e-12
5.197878791e-12
5.197878791e-12
5.197878791e-12
5.197878791e-12
5.197878791e-12
5.197878791e-12
5.197878791e-12
5.197878791e-12
5.197878791e-12
5.197878791e-12
5.197878791e-12
5.197878791e-12
5.197878791e-12
5.197878791e-12
5.197878791e-12
5.197878791e-12
5.197878791e-12
5.197878791e-12
5.197878791e-12
5.197878791e-12
5.197878791e-12
5.197878791e-12
5.197878791e-12
5.197878791e-12
5.197878791e-12
5.197878791e-12
5.197878791e-12
5.197878791e-12
5.197878791e-12
5.197878791e-12
5.197878791e-12
5.197878791e-12
5.197878791e-12
5.197878791e-12
5.197878791e-12
5.197878791e-12
5.197878791e-12
5.197878791e-12
5.197878791e-12
5.197878791e-12
5.197878791e-12
5.197878791e-12
5.197878791e-12
5.197878791e-12
5.197878791e-12
5.197878791e-12
5.197878791e-12
5.197878791e-12
5.197878791e-12
5.197878791e-12
5.197878791e-12
5.197878791e-12
5.197878791e-12
5.197878791e-12
5.197878791e-12
5.197878791e-12
5.197878791e-12
5.197878791e-12
5.197878791e-12
5.197878791e-12
5.197878791e-12
5.197878791e-12
5.197878791e-12
5.197878791e-12
5.197878791e-12
5.197878791e-12
5.197878791e-12
5.197878791e-12
5.197878791e-12
5.197878791e-12
5.197878791e-12
5.197878791e-12
5.197878791e-12
5.197878791e-12
5.197878791e-12
5.197878791e-12
5.197878791e-12
5.197878791e-12
5.197878791e-12
5.197878791e-12
5.197878791e-12
5.197878791e-12
5.197878791e-12
5.197878791e-12
5.197878791e-12
5.197878791e-12
5.197878791e-12
5.197878791e-12
5.197878791e-12
5.197878791e-12
5.197878791e-12
5.19787879e-12
5.19787879e-12
5.19787879e-12
5.197878789e-12
5.197878788e-12
5.197878787e-12
5.197878785e-12
5.197878783e-12
5.197878781e-12
5.197878777e-12
5.197878772e-12
5.197878764e-12
5.197878755e-12
5.197878742e-12
5.197878724e-12
5.1978787e-12
5.197878668e-12
5.197878624e-12
5.197878565e-12
5.197878484e-12
5.197878375e-12
5.197878227e-12
5.197878026e-12
5.197877753e-12
5.197877384e-12
5.197876883e-12
5.197876204e-12
5.197875284e-12
5.197874036e-12
5.197872344e-12
5.197870052e-12
5.197866943e-12
5.19786273e-12
5.197857018e-12
5.197849275e-12
5.19783878e-12
5.197824554e-12
5.19780527e-12
5.197779131e-12
5.1977437e-12
5.197695676e-12
5.197630582e-12
5.197542354e-12
5.19742277e-12
5.197260693e-12
5.197041038e-12
5.196743378e-12
5.196340079e-12
5.19579382e-12
5.19505435e-12
5.194054385e-12
5.192704806e-12
5.190890004e-12
5.188466274e-12
5.185271359e-12
5.181166763e-12
5.176168675e-12
5.170809543e-12
5.167088872e-12
5.170914097e-12
5.19828869e-12
5.290892246e-12
5.555150498e-12
6.259964456e-12
8.080746279e-12
1.270795971e-11
2.436277431e-11
5.356733831e-11
1.265106765e-10
3.082760603e-10
7.603231791e-10
1.882782088e-09
4.662721022e-09
1.119855337e-08
2.64397453e-08
6.190804965e-08
1.4434375e-07
3.351456686e-07
7.740543963e-07
1.769341845e-06
3.972777227e-06
8.651219342e-06
1.791771192e-05
3.564087585e-05
7.42086431e-05
0.0001194160547
0.0001313602822
0.0001004294173
5.857162543e-05
2.920941835e-05
1.5623147e-05
1.130663696e-05
1.036098825e-05
1.011895073e-05
9.833809755e-06
9.357341307e-06
8.742921998e-06
8.072593746e-06
7.41107358e-06
6.788143661e-06
6.21387788e-06
5.691182008e-06
5.219037948e-06
4.794239162e-06
4.412254318e-06
4.069508554e-06
3.762051734e-06
3.485446365e-06
3.236037082e-06
3.010714664e-06
2.80670388e-06
2.621692499e-06
2.453539391e-06
2.300388405e-06
2.160639746e-06
2.032882883e-06
1.915865685e-06
1.808478206e-06
1.709742157e-06
1.618790802e-06
1.534888368e-06
1.457432818e-06
1.385713165e-06
1.319171762e-06
1.2573367e-06
1.199966659e-06
1.14644304e-06
1.096446651e-06
1.049885215e-06
1.00618374e-06
9.653105836e-07
9.269343279e-07
8.908473238e-07
8.569648729e-07
8.249692075e-07
7.94886883e-07
7.664062376e-07
7.395489967e-07
7.14113842e-07
6.900036823e-07
6.672281481e-07
6.454607642e-07
6.250086563e-07
6.054295249e-07
5.868340507e-07
5.691979034e-07
5.522804133e-07
5.362757798e-07
5.209952783e-07
5.063116807e-07
4.924256315e-07
4.791435948e-07
4.663618183e-07
4.542129134e-07
4.426264307e-07
4.314597156e-07
4.207161765e-07
4.105760336e-07
4.007891538e-07
3.913398492e-07
3.822782721e-07
3.736829429e-07
3.653722073e-07
3.573335469e-07
3.495752191e-07
3.422496408e-07
3.351546223e-07
3.282787071e-07
3.216120356e-07
3.152275764e-07
3.091314417e-07
3.032119311e-07
2.97461895e-07
2.918739562e-07
2.864850513e-07
2.81356788e-07
2.763656193e-07
2.715062972e-07
2.667734453e-07
2.621614967e-07
2.577375613e-07
2.534939125e-07
2.493530529e-07
2.453114601e-07
2.413655442e-07
2.375116048e-07
2.337495842e-07
2.301942819e-07
2.267176197e-07
2.233173488e-07
2.199911896e-07
2.167367992e-07
2.13551738e-07
2.104334186e-07
2.074638559e-07
2.045806455e-07
2.01755828e-07
1.989880171e-07
1.96275789e-07
1.936176468e-07
1.910120047e-07
1.884571404e-07
1.860039202e-07
1.836378348e-07
1.813165255e-07
1.790391185e-07
1.768047106e-07
1.746123413e-07
1.724609918e-07
1.703495518e-07
1.682768103e-07
1.662601521e-07
1.64343685e-07
1.624611076e-07
1.60611825e-07
1.587952136e-07
1.570106278e-07
1.552573826e-07
1.535347564e-07
1.518419702e-07
1.501781829e-07
1.485424653e-07
1.469665044e-07
1.454542461e-07
1.439665836e-07
1.425030906e-07
1.410633375e-07
1.396468839e-07
1.382532807e-07
1.368820611e-07
1.355327403e-07
1.342048037e-07
1.328977017e-07
1.316108343e-07
1.303435388e-07
1.291479686e-07
1.279761982e-07
1.268217888e-07
1.256845072e-07
1.245641209e-07
1.234603989e-07
1.223731077e-07
1.213020105e-07
1.202468634e-07
1.19207412e-07
1.181833863e-07
1.171744953e-07
1.16180419e-07
1.152007988e-07
1.142355394e-07
1.133315312e-07
1.124402644e-07
1.115616212e-07
1.106954833e-07
1.098417293e-07
1.09000236e-07
1.081708751e-07
1.07353515e-07
1.065480158e-07
1.057542313e-07
1.049720029e-07
1.042011609e-07
1.034415157e-07
1.026928579e-07
1.019549464e-07
1.012275043e-07
1.005102012e-07
9.98026422e-08
9.913553048e-08
9.848422693e-08
9.78421098e-08
9.720906443e-08
9.658497153e-08
9.59697135e-08
9.536316764e-08
9.47652131e-08
9.417572443e-08
9.359457829e-08
9.302164593e-08
9.245680055e-08
9.189991005e-08
9.135084387e-08
9.080946465e-08
9.027563541e-08
8.974921125e-08
8.923004567e-08
8.871798062e-08
8.821285257e-08
8.771448185e-08
8.722267654e-08
8.673721893e-08
8.626897674e-08
8.582291698e-08
8.538231622e-08
8.49470679e-08
8.451706884e-08
8.409221197e-08
8.36723935e-08
8.325750521e-08
8.2847442e-08
8.244209488e-08
8.204135794e-08
8.164512094e-08
8.125327653e-08
8.086571358e-08
8.048232379e-08
8.010299464e-08
7.972761621e-08
7.935607485e-08
7.898825928e-08
7.862405402e-08
7.826334552e-08
7.790601624e-08
7.755194998e-08
7.720102576e-08
7.685312286e-08
7.650811518e-08
7.616587528e-08
7.582626823e-08
7.548915494e-08
7.515438587e-08
7.482180256e-08
7.449123014e-08
7.418213508e-08
7.38752812e-08
7.356994106e-08
7.326602078e-08
7.296342467e-08
7.266203931e-08
7.236202161e-08
7.206280874e-08
7.176456702e-08
7.146725444e-08
7.117079584e-08
7.087511824e-08
7.058015131e-08
7.028582743e-08
6.999208158e-08
6.969885202e-08
6.940607949e-08
6.911370826e-08
6.882168481e-08
6.852995969e-08
6.823848539e-08
6.794721849e-08
6.765611703e-08
6.736514353e-08
6.707426156e-08
6.678343876e-08
6.649264298e-08
6.620184628e-08
6.591102002e-08
6.562013867e-08
6.532917454e-08
6.503810239e-08
6.474689285e-08
6.445551664e-08
6.416393732e-08
6.3872116e-08
6.358745133e-08
6.331448886e-08
6.304126415e-08
6.276781106e-08
6.249416542e-08
6.222037345e-08
6.194648018e-08
6.167248688e-08
6.13983877e-08
6.112463753e-08
6.085100144e-08
6.057754084e-08
6.030431808e-08
6.003140308e-08
5.975886468e-08
5.948677911e-08
5.921522106e-08
5.894427165e-08
5.867400998e-08
5.840452189e-08
5.813589086e-08
5.786820608e-08
5.760155377e-08
5.7336026e-08
5.707171137e-08
5.680870306e-08
5.654709004e-08
5.628696562e-08
5.602841821e-08
5.57715389e-08
5.551641276e-08
5.526312681e-08
5.501176081e-08
5.476239418e-08
5.451509729e-08
5.426993851e-08
5.402697506e-08
5.380533205e-08
5.358618401e-08
5.336931046e-08
5.315480914e-08
5.29427793e-08
5.273331568e-08
5.252651423e-08
5.232246631e-08
5.212126357e-08
5.192299291e-08
5.172774121e-08
5.153559053e-08
5.134662212e-08
5.116091234e-08
5.097853636e-08
5.079956449e-08
5.062406512e-08
5.045210179e-08
5.028373572e-08
5.011902334e-08
4.995801816e-08
4.980076901e-08
4.964732136e-08
4.949771607e-08
4.935199021e-08
4.921017647e-08
4.907230321e-08
4.893839455e-08
4.880847004e-08
4.868254526e-08
4.856063065e-08
4.844273293e-08
4.832885352e-08
4.821899049e-08
4.811313603e-08
4.801127926e-08
4.791340345e-08
4.781948917e-08
4.772951062e-08
4.764343959e-08
4.756124165e-08
4.748288042e-08
4.740831277e-08
4.733749391e-08
4.727037261e-08
4.720689651e-08
4.714700624e-08
4.709064161e-08
4.703773592e-08
4.698822212e-08
4.694202612e-08
4.689907383e-08
4.685928467e-08
4.682257861e-08
4.678886859e-08
4.67580684e-08
4.673008552e-08
4.670482878e-08
4.668220017e-08
4.666210336e-08
4.664443595e-08
4.662909768e-08
4.661598176e-08
4.660498382e-08
4.659599379e-08
4.658890446e-08
4.658360247e-08
4.657997756e-08
4.657791422e-08
4.657730043e-08
4.657801849e-08
4.657995441e-08
4.658298942e-08
4.658700881e-08
4.659189271e-08
4.659752547e-08
4.66037872e-08
4.66105625e-08
4.661773145e-08
4.662517869e-08
4.663278527e-08
4.664043705e-08
4.664801601e-08
4.665540901e-08
4.666249998e-08
4.66691779e-08
4.667532861e-08
4.668084309e-08
4.668561008e-08
4.668952362e-08
4.669247547e-08
4.669436272e-08
4.669508107e-08
4.669453176e-08
4.669261467e-08
4.668923529e-08
4.668429879e-08
4.66777165e-08
4.666940047e-08
4.665927132e-08
4.664725889e-08
4.66333243e-08
4.661708643e-08
4.659922185e-08
4.657862959e-08
4.655578075e-08
4.653016911e-08
4.650196726e-08
4.647151328e-08
4.643872327e-08
4.640358945e-08
4.636611755e-08
4.632632756e-08
4.628425891e-08
4.623997153e-08
4.619355158e-08
4.614511394e-08
4.609480941e-08
4.604283029e-08
4.598942049e-08
4.593488613e-08
4.587961209e-08
4.58240852e-08
4.576892462e-08
4.57149292e-08
4.566313837e-08
4.561492715e-08
4.557212077e-08
4.553716281e-08
4.552754099e-08
4.552728337e-08
4.552702323e-08
4.552676103e-08
4.552649724e-08
4.552623237e-08
4.552596693e-08
4.552570137e-08
4.55254364e-08
4.552517224e-08
4.552490958e-08
4.552464897e-08
4.552439095e-08
4.552413608e-08
4.552388491e-08
4.552363798e-08
4.552339586e-08
4.552315911e-08
4.552292829e-08
4.552270397e-08
4.552248673e-08
4.552227714e-08
4.552207577e-08
4.552188321e-08
4.552170004e-08
4.552152684e-08
4.552136421e-08
4.552121273e-08
4.552107299e-08
4.55209456e-08
4.552083115e-08
4.552073023e-08
4.552064346e-08
4.552057143e-08
4.552051474e-08
4.552047402e-08
4.552044992e-08
4.552044327e-08
4.552045334e-08
4.552048321e-08
4.552053271e-08
4.552060189e-08
4.552069138e-08
4.55208018e-08
4.552093379e-08
4.552108795e-08
4.552126492e-08
4.552146532e-08
4.552168975e-08
4.552193885e-08
4.552221323e-08
4.552251348e-08
4.552284023e-08
4.552319405e-08
4.552357554e-08
4.552398525e-08
4.552442374e-08
4.552489154e-08
4.552538913e-08
4.5525917e-08
4.552647553e-08
4.552706511e-08
4.552768602e-08
4.552833847e-08
4.552902256e-08
4.552973827e-08
4.553048542e-08
4.553126364e-08
4.553207233e-08
4.553291058e-08
4.553377717e-08
4.553467042e-08
4.553558813e-08
4.553652749e-08
4.553748488e-08
4.553845577e-08
4.553943445e-08
4.554041383e-08
4.554138513e-08
4.554233751e-08
4.554325763e-08
4.554412918e-08
4.554493222e-08
4.554564247e-08
4.554623047e-08
4.554666055e-08
4.554688975e-08
)
;

boundaryField
{
    inlet
    {
        type            calculated;
        value           uniform 5.197878791e-12;
    }
    outlet
    {
        type            calculated;
        value           uniform 4.554688975e-08;
    }
    upperWall
    {
        type            empty;
    }
    lowerWall
    {
        type            empty;
    }
    frontAndBack
    {
        type            empty;
    }
}


// ************************************************************************* //
