/*--------------------------------*- C++ -*----------------------------------*\
  =========                 |
  \\      /  F ield         | OpenFOAM: The Open Source CFD Toolbox
   \\    /   O peration     | Website:  https://openfoam.org
    \\  /    A nd           | Version:  9
     \\/     M anipulation  |
\*---------------------------------------------------------------------------*/
FoamFile
{
    format      ascii;
    class       volScalarField;
    location    "0.019";
    object      HO2;
}
// * * * * * * * * * * * * * * * * * * * * * * * * * * * * * * * * * * * * * //

dimensions      [0 0 0 0 0 0 0];

internalField   nonuniform List<scalar> 
1000
(
7.618007271e-30
0
0
1.816150853e-30
3.937897743e-30
4.273973386e-30
1.446088296e-29
2.795213828e-29
2.68410674e-29
1.580893487e-29
2.248287451e-29
2.378612436e-29
3.195675249e-29
4.101496762e-29
4.300911016e-29
4.60523247e-29
2.864350213e-29
2.773084089e-29
4.982784002e-29
5.334517256e-29
6.953357071e-29
5.229138634e-29
4.351295017e-29
5.726160204e-29
5.236270128e-29
4.973963133e-29
5.414494693e-29
2.15520006e-29
0
1.002000959e-29
3.08702123e-31
2.559717999e-30
7.352784084e-30
1.481076307e-29
2.795959908e-29
3.135393997e-29
4.456747211e-29
3.025527652e-29
1.935469521e-29
1.066275584e-29
1.305936058e-29
1.212492013e-29
3.026386822e-29
4.945680077e-29
6.290907793e-29
4.639196333e-29
2.619714858e-29
2.007587973e-29
0
3.757212598e-30
1.284847196e-29
1.0396364e-29
4.495249204e-29
5.4944621e-29
5.115280662e-29
5.176113401e-29
5.01527391e-29
3.177371091e-29
2.191721088e-29
2.63473402e-29
2.257468516e-29
3.643731127e-29
1.556234392e-29
1.402307258e-29
2.907747916e-29
3.605482467e-29
4.905005896e-29
5.010471772e-29
3.892106239e-29
3.345055491e-29
2.115371679e-29
1.777074696e-29
0
1.782784658e-29
4.906420972e-29
6.255727534e-29
5.200249801e-29
4.084730673e-29
4.207107126e-29
3.973904053e-29
4.545328592e-29
2.107121751e-29
2.643471268e-29
3.037001563e-29
4.064630248e-29
6.742113605e-29
6.555479543e-29
6.917725916e-29
5.681985513e-29
4.364524942e-29
2.506681955e-29
2.138835365e-29
3.127291077e-29
4.920197893e-29
4.889224098e-29
4.438419178e-29
4.465438257e-29
4.901075371e-29
4.897508114e-29
3.517804892e-29
4.793812961e-29
6.168460756e-29
3.950198732e-29
5.859417934e-29
5.770080637e-29
4.996701957e-29
5.061127377e-29
4.987431654e-29
4.316227592e-29
4.524536508e-29
3.441173337e-29
3.79295867e-29
4.584671785e-29
4.461699835e-29
4.865608017e-29
4.130097476e-29
3.581890843e-29
4.926781993e-29
4.880411385e-29
7.014655444e-29
5.998784779e-29
3.186348607e-29
2.150863929e-29
1.179036212e-29
1.686193496e-29
3.382060344e-29
4.518648752e-29
1.57596009e-29
1.502682691e-29
1.943662075e-29
1.503960314e-29
1.795614137e-29
5.282793457e-29
6.734140943e-29
8.46357091e-29
6.633306445e-29
6.862496033e-29
5.845166074e-29
5.473086883e-29
3.499074795e-29
3.705915501e-29
5.344953739e-29
5.663624102e-29
5.544296905e-29
6.597756026e-29
6.083002103e-29
6.086076685e-29
5.09834792e-29
6.453610466e-29
2.72914858e-29
3.656142066e-29
3.624781698e-29
8.803299801e-29
8.418417752e-29
6.086709946e-29
6.387062349e-29
7.747805703e-29
9.562089236e-29
1.30992855e-28
1.3189512e-28
1.297237808e-28
1.196102703e-28
9.868842689e-29
7.832753077e-29
6.325009334e-29
6.127923459e-29
6.179414161e-29
5.782133988e-29
7.117619324e-29
7.182409154e-29
7.764719116e-29
8.463036283e-29
7.957566106e-29
8.204528272e-29
7.381428437e-29
6.848993989e-29
6.539264667e-29
6.854435365e-29
6.647715003e-29
7.072385354e-29
4.07928653e-29
3.632393004e-29
3.923625693e-29
5.610612481e-29
9.300151573e-29
1.109522625e-28
1.077666824e-28
1.048774494e-28
9.230634017e-29
9.254018102e-29
6.31511304e-29
5.745991934e-29
4.780811731e-29
4.911912809e-29
4.085631428e-29
5.20879682e-29
4.057059438e-29
4.361165808e-29
4.256076974e-29
4.001154201e-29
3.331666622e-29
2.061192508e-29
2.754499144e-29
2.028515692e-29
6.745221798e-30
1.506765631e-29
4.253631099e-29
6.298088331e-29
8.027236419e-29
7.982763236e-29
7.271483536e-29
8.184679571e-29
8.495274738e-29
6.480343461e-29
7.625168186e-29
7.95099079e-29
8.269062298e-29
9.967117854e-29
1.065747457e-28
8.833541802e-29
6.447719708e-29
7.357394768e-29
7.207828251e-29
6.766310428e-29
6.451310579e-29
6.359578846e-29
6.492357491e-29
7.286267401e-29
6.722078301e-29
5.732575794e-29
6.961842524e-29
5.783914176e-29
5.142657962e-29
6.368501864e-29
6.292906322e-29
6.160690358e-29
4.735392656e-29
5.827360299e-29
4.475359631e-29
4.139418963e-29
6.619102937e-29
9.596916613e-29
1.10923742e-28
1.052637457e-28
9.557630335e-29
7.423270083e-29
7.007330869e-29
7.284335386e-29
7.733221093e-29
1.170505239e-28
1.218694605e-28
1.162055936e-28
1.049047637e-28
7.732285782e-29
5.306970684e-29
3.9526315e-29
4.858490927e-29
7.431794436e-29
6.664480337e-29
7.186749239e-29
6.178936648e-29
7.432026566e-29
6.767918663e-29
6.960079012e-29
5.502588036e-29
4.468590923e-29
2.913094814e-29
5.496263422e-29
6.069813076e-29
5.445598905e-29
5.018946765e-29
4.799578777e-29
6.866800553e-29
7.640937541e-29
8.540644876e-29
9.409768251e-29
8.342861871e-29
8.726770569e-29
7.699840962e-29
7.008546986e-29
1.008437586e-28
1.268081977e-28
1.098235993e-28
1.152249427e-28
1.038588785e-28
8.168773083e-29
8.204693689e-29
7.228690105e-29
1.015561245e-28
8.447539048e-29
9.517047255e-29
9.075996913e-29
8.011916571e-29
7.094940544e-29
6.235034983e-29
5.030413039e-29
5.308329796e-29
5.203645226e-29
4.434147192e-29
3.344190813e-29
3.689239996e-29
4.535868952e-29
5.619899082e-29
5.9838819e-29
5.996356657e-29
4.773352672e-29
5.144896958e-29
3.574808182e-29
4.096461914e-29
4.566012915e-29
4.635351617e-29
5.51513727e-29
5.505222248e-29
7.036737525e-29
8.017493927e-29
9.041269385e-29
7.692223588e-29
8.922501688e-29
4.993421186e-29
6.854678632e-29
6.534047722e-29
4.959507579e-29
4.835802207e-29
4.117812695e-29
4.76329889e-29
4.507831145e-29
5.099950217e-29
4.777667583e-29
3.507080161e-29
3.690378433e-29
6.043843138e-29
7.871412076e-29
7.257024815e-29
6.597707769e-29
6.218510012e-29
8.332067496e-29
8.700628502e-29
8.177666664e-29
1.018969403e-28
9.480586511e-29
9.660876829e-29
9.827436981e-29
8.481630693e-29
9.986141012e-29
9.838416972e-29
1.009092833e-28
1.032144549e-28
1.04339347e-28
1.018200825e-28
7.870558906e-29
7.700018664e-29
7.293371475e-29
9.829268114e-29
1.036283146e-28
9.957107478e-29
1.07069572e-28
9.886834035e-29
8.270334962e-29
8.650257329e-29
7.580258537e-29
9.115934896e-29
1.162516404e-28
1.479027497e-28
1.610401504e-28
1.740470306e-28
2.088149598e-28
2.858811058e-28
3.941198285e-28
5.322775831e-28
7.351176002e-28
1.006281389e-27
1.349654502e-27
1.846739802e-27
2.515611541e-27
3.40581491e-27
4.60938714e-27
6.274195886e-27
8.525815125e-27
1.15752703e-26
1.571724365e-26
2.129857914e-26
2.890694625e-26
3.915233255e-26
5.307167465e-26
7.198982236e-26
9.758986157e-26
1.323575689e-25
1.794945408e-25
2.434415038e-25
3.302077013e-25
4.479240811e-25
6.07513169e-25
8.240011522e-25
1.117582391e-24
1.515705468e-24
2.055657909e-24
2.787897116e-24
3.780904837e-24
5.127482437e-24
6.95348905e-24
9.429602829e-24
1.2787167e-23
1.733995159e-23
2.351326161e-23
3.188371613e-23
4.323307522e-23
5.862128235e-23
7.948525966e-23
1.077730317e-22
1.46125426e-22
1.981226014e-22
2.686178194e-22
3.641902954e-22
4.937587959e-22
6.694136233e-22
9.07544191e-22
1.230368246e-21
1.668005579e-21
2.261292609e-21
3.0656066e-21
4.156075597e-21
5.634711565e-21
7.640275505e-21
1.036218674e-20
1.406084881e-20
1.90992328e-20
2.599672996e-20
3.553238141e-20
4.896753855e-20
6.857397176e-20
9.896810112e-20
1.506080454e-19
2.491410632e-19
4.545891257e-19
9.102586501e-19
1.970363933e-18
4.514290923e-18
1.073297617e-17
2.609667192e-17
6.428016325e-17
1.594931425e-16
3.973539978e-16
9.922009002e-16
2.480684557e-15
6.20649469e-15
1.553377957e-14
3.888374362e-14
9.733031985e-14
2.435891836e-13
6.094570624e-13
1.524233138e-12
3.810056091e-12
9.517680541e-12
2.375722105e-11
5.924656009e-11
1.475905339e-10
3.671846747e-10
9.120296864e-10
2.260720825e-09
5.590451134e-09
1.37780068e-08
3.283233345e-08
7.663605036e-08
1.765231966e-07
4.022097851e-07
9.031122351e-07
1.989436351e-06
4.237841637e-06
8.584639065e-06
1.612624608e-05
2.708839652e-05
4.680190729e-05
0.0001269536949
0.000288595474
0.000388524415
0.0003175543097
0.0002248198612
0.000162615307
0.0001232624217
9.816999759e-05
8.190522427e-05
7.097973639e-05
6.323718318e-05
5.730572563e-05
5.233181494e-05
4.805873386e-05
4.428437755e-05
4.091211561e-05
3.786370074e-05
3.509125022e-05
3.256315188e-05
3.025247106e-05
2.813089288e-05
2.61903559e-05
2.441209765e-05
2.278239786e-05
2.128271949e-05
1.990613387e-05
1.864097524e-05
1.747615157e-05
1.640414329e-05
1.541702908e-05
1.450737589e-05
1.366845395e-05
1.289410988e-05
1.217870865e-05
1.151712549e-05
1.090466508e-05
1.033711521e-05
9.810938056e-06
9.322325821e-06
8.867918828e-06
8.444760947e-06
8.051244673e-06
7.683742526e-06
7.340112176e-06
7.019775355e-06
6.719039941e-06
6.43768135e-06
6.173534056e-06
5.92516489e-06
5.692102471e-06
5.472076764e-06
5.26542983e-06
5.069870889e-06
4.885697901e-06
4.711424058e-06
4.546401195e-06
4.390797385e-06
4.242071754e-06
4.102839812e-06
3.969542878e-06
3.843182474e-06
3.723629903e-06
3.608943533e-06
3.50083509e-06
3.397769789e-06
3.298727203e-06
3.205477718e-06
3.116409171e-06
3.030693677e-06
2.949527051e-06
2.872345762e-06
2.797960161e-06
2.726441517e-06
2.659402085e-06
2.594698398e-06
2.532226893e-06
2.472459904e-06
2.416116393e-06
2.361639107e-06
2.308945996e-06
2.258134835e-06
2.210576273e-06
2.164515278e-06
2.119877365e-06
2.076598468e-06
2.035342942e-06
1.996185915e-06
1.958163843e-06
1.921230722e-06
1.885339097e-06
1.85083657e-06
1.818289566e-06
1.786612805e-06
1.75577292e-06
1.725735742e-06
1.696465902e-06
1.66857195e-06
1.641998021e-06
1.61606771e-06
1.590758936e-06
1.566049207e-06
1.541915347e-06
1.518367089e-06
1.496437581e-06
1.47499306e-06
1.454019655e-06
1.433503316e-06
1.413429603e-06
1.39378349e-06
1.374549037e-06
1.356469044e-06
1.338989591e-06
1.32186419e-06
1.305084454e-06
1.288641772e-06
1.272527086e-06
1.256730802e-06
1.241242498e-06
1.226526228e-06
1.212455465e-06
1.198651175e-06
1.185108169e-06
1.171821083e-06
1.158784211e-06
1.145991501e-06
1.133436353e-06
1.121111569e-06
1.109177763e-06
1.09803592e-06
1.087091364e-06
1.07634063e-06
1.065780088e-06
1.055405977e-06
1.045214308e-06
1.035200879e-06
1.025361154e-06
1.015690236e-06
1.006182713e-06
9.971301286e-07
9.885710801e-07
9.801514593e-07
9.718688432e-07
9.637207923e-07
9.557048052e-07
9.478183314e-07
9.400587214e-07
9.324232229e-07
9.249089162e-07
9.175126827e-07
9.102311179e-07
9.03060462e-07
8.964811882e-07
8.9005538e-07
8.837249258e-07
8.774885407e-07
8.713449454e-07
8.652928669e-07
8.593310208e-07
8.534581038e-07
8.476727731e-07
8.419736288e-07
8.363591866e-07
8.308278447e-07
8.253778436e-07
8.200072115e-07
8.147166166e-07
8.099439347e-07
8.052386235e-07
8.006000564e-07
7.960276049e-07
7.915206233e-07
7.87078457e-07
7.827004244e-07
7.783858256e-07
7.741339174e-07
7.699439223e-07
7.658149985e-07
7.617462438e-07
7.577366526e-07
7.53785112e-07
7.498903427e-07
7.460508756e-07
7.422649579e-07
7.385304945e-07
7.351386057e-07
7.318554768e-07
7.286186832e-07
7.254276417e-07
7.222817462e-07
7.191803987e-07
7.16122976e-07
7.131088641e-07
7.101374259e-07
7.072080351e-07
7.043200382e-07
7.014727916e-07
6.98665625e-07
6.958978763e-07
6.931688489e-07
6.904778484e-07
6.878241405e-07
6.852069828e-07
6.826255751e-07
6.800790891e-07
6.775666155e-07
6.75087183e-07
6.726396902e-07
6.703303237e-07
6.682080676e-07
6.661117102e-07
6.640407423e-07
6.61994671e-07
6.59972985e-07
6.579751888e-07
6.560007657e-07
6.540492144e-07
6.521200147e-07
6.502126615e-07
6.48326629e-07
6.464614055e-07
6.446164612e-07
6.427912801e-07
6.40985326e-07
6.391980754e-07
6.374289871e-07
6.356775312e-07
6.339431579e-07
6.32225327e-07
6.305234792e-07
6.288370618e-07
6.271654991e-07
6.255082174e-07
6.238646171e-07
6.222340922e-07
6.206160015e-07
6.190096838e-07
6.174144284e-07
6.158294821e-07
6.142540134e-07
6.128823705e-07
6.115240434e-07
6.101723162e-07
6.088267762e-07
6.074870028e-07
6.061524965e-07
6.048239615e-07
6.034988973e-07
6.021780503e-07
6.008612394e-07
5.995481358e-07
5.982384205e-07
5.969317864e-07
5.956279385e-07
5.943265934e-07
5.930274822e-07
5.917303475e-07
5.904349473e-07
5.891410495e-07
5.878484401e-07
5.865569141e-07
5.852662842e-07
5.839763701e-07
5.82687011e-07
5.813980512e-07
5.801093526e-07
5.788207787e-07
5.775322112e-07
5.762435288e-07
5.749546243e-07
5.736653805e-07
5.723756915e-07
5.710854328e-07
5.697944804e-07
5.685026785e-07
5.672098606e-07
5.659923098e-07
5.648968117e-07
5.638003351e-07
5.627030215e-07
5.616050203e-07
5.605065224e-07
5.59407714e-07
5.58308604e-07
5.57209173e-07
5.561112616e-07
5.550139244e-07
5.539174127e-07
5.528219812e-07
5.517279152e-07
5.506354952e-07
5.495450315e-07
5.484568278e-07
5.473712137e-07
5.462885104e-07
5.452090659e-07
5.441332187e-07
5.430613299e-07
5.419937486e-07
5.409308471e-07
5.398729837e-07
5.388205346e-07
5.377738592e-07
5.367333341e-07
5.356993157e-07
5.346721712e-07
5.336522433e-07
5.326398825e-07
5.316354095e-07
5.306391439e-07
5.296513684e-07
5.286723575e-07
5.277023407e-07
5.269339178e-07
5.261765008e-07
5.254271904e-07
5.24686326e-07
5.239542513e-07
5.232312948e-07
5.225177885e-07
5.218140482e-07
5.211203907e-07
5.204371158e-07
5.19764523e-07
5.19102895e-07
5.184525112e-07
5.178136338e-07
5.171865208e-07
5.165714128e-07
5.159685436e-07
5.153781301e-07
5.148003806e-07
5.142354868e-07
5.136836298e-07
5.131449744e-07
5.126196734e-07
5.121078636e-07
5.116096682e-07
5.111251949e-07
5.106545366e-07
5.101977709e-07
5.097549595e-07
5.093261503e-07
5.089113728e-07
5.085106438e-07
5.081239615e-07
5.077513122e-07
5.073926617e-07
5.070479651e-07
5.06717157e-07
5.064001625e-07
5.060968848e-07
5.058072182e-07
5.055310356e-07
5.052682031e-07
5.050185631e-07
5.047819525e-07
5.045581857e-07
5.043470729e-07
5.041484004e-07
5.039619513e-07
5.037874863e-07
5.036247649e-07
5.034735221e-07
5.033334929e-07
5.032043901e-07
5.030859282e-07
5.029777973e-07
5.02879691e-07
5.027912805e-07
5.027122422e-07
5.026422286e-07
5.025808984e-07
5.025278891e-07
5.02482846e-07
5.024453917e-07
5.024151573e-07
5.023917546e-07
5.023748051e-07
5.023639093e-07
5.023586787e-07
5.023587066e-07
5.023635988e-07
5.023729414e-07
5.023863337e-07
5.024033585e-07
5.02423613e-07
5.024466767e-07
5.024721439e-07
5.024995944e-07
5.02528624e-07
5.025588127e-07
5.02589757e-07
5.026210407e-07
5.026522649e-07
5.026830173e-07
5.02712903e-07
5.027415167e-07
5.027684713e-07
5.027933689e-07
5.028158298e-07
5.028354665e-07
5.028519105e-07
5.028647854e-07
5.028737334e-07
5.028783926e-07
5.028784202e-07
5.028734689e-07
5.028632114e-07
5.028473192e-07
5.028254857e-07
5.027974069e-07
5.027628089e-07
5.027214505e-07
5.026732002e-07
5.026167251e-07
5.025544056e-07
5.024823815e-07
5.024023128e-07
5.023124404e-07
5.022133705e-07
5.02106284e-07
5.019908931e-07
5.018671753e-07
5.017351552e-07
5.015949074e-07
5.01446574e-07
5.012903691e-07
5.011265979e-07
5.009556661e-07
5.007781043e-07
5.005945883e-07
5.004059733e-07
5.002133318e-07
5.000180104e-07
4.998217115e-07
4.996265982e-07
4.994354602e-07
4.992519254e-07
4.990807919e-07
4.989284275e-07
4.988033566e-07
4.987664164e-07
4.987620256e-07
4.987575919e-07
4.987531232e-07
4.987486274e-07
4.987441131e-07
4.98739589e-07
4.98735063e-07
4.98730547e-07
4.987260449e-07
4.987215683e-07
4.987171266e-07
4.987127292e-07
4.987083853e-07
4.987041044e-07
4.98699896e-07
4.986957694e-07
4.986917344e-07
4.986878005e-07
4.986839774e-07
4.986802749e-07
4.986767027e-07
4.986732707e-07
4.986699889e-07
4.98666867e-07
4.986639151e-07
4.986611433e-07
4.986585616e-07
4.9865618e-07
4.986540089e-07
4.986520582e-07
4.986503383e-07
4.986488593e-07
4.986476316e-07
4.986466656e-07
4.986459716e-07
4.986455608e-07
4.986454474e-07
4.98645619e-07
4.986461281e-07
4.986469718e-07
4.986481508e-07
4.98649676e-07
4.98651558e-07
4.986538075e-07
4.98656435e-07
4.986594511e-07
4.986628665e-07
4.986666917e-07
4.986709372e-07
4.986756134e-07
4.986807308e-07
4.986862996e-07
4.9869233e-07
4.986988317e-07
4.987058146e-07
4.98713288e-07
4.987212608e-07
4.987297415e-07
4.98738738e-07
4.987482574e-07
4.987583058e-07
4.987688881e-07
4.98780008e-07
4.987916672e-07
4.988038654e-07
4.988165993e-07
4.988298628e-07
4.988436454e-07
4.988579321e-07
4.988727017e-07
4.988879256e-07
4.989035665e-07
4.989195763e-07
4.989358935e-07
4.989524407e-07
4.989691207e-07
4.989858126e-07
4.990023668e-07
4.990185985e-07
4.990342805e-07
4.990491346e-07
4.990628211e-07
4.990749262e-07
4.990849475e-07
4.990922776e-07
4.990961839e-07
)
;

boundaryField
{
    inlet
    {
        type            calculated;
        value           uniform 0;
    }
    outlet
    {
        type            calculated;
        value           uniform 4.990961839e-07;
    }
    upperWall
    {
        type            empty;
    }
    lowerWall
    {
        type            empty;
    }
    frontAndBack
    {
        type            empty;
    }
}


// ************************************************************************* //
