/*--------------------------------*- C++ -*----------------------------------*\
  =========                 |
  \\      /  F ield         | OpenFOAM: The Open Source CFD Toolbox
   \\    /   O peration     | Website:  https://openfoam.org
    \\  /    A nd           | Version:  9
     \\/     M anipulation  |
\*---------------------------------------------------------------------------*/
FoamFile
{
    format      ascii;
    class       volScalarField;
    location    "0.019";
    object      HRR;
}
// * * * * * * * * * * * * * * * * * * * * * * * * * * * * * * * * * * * * * //

dimensions      [1 -1 -3 0 0 0 0];

internalField   nonuniform List<scalar> 
1000
(
0
0
0
0
0
0
0
0
0
0
0
0
0
0
0
0
0
0
0
0
0
0
0
0
0
0
0
0
0
0
0
0
0
0
0
0
0
0
0
0
0
0
0
0
0
0
0
0
0
0
0
0
0
0
0
0
0
0
0
0
0
0
0
0
0
0
0
0
0
0
0
0
0
0
0
0
0
0
0
0
0
0
0
0
0
0
0
0
0
0
0
0
0
0
0
0
0
0
0
0
0
0
0
0
0
0
0
0
0
0
0
0
0
0
0
0
0
0
0
0
0
0
0
0
0
0
0
0
0
0
0
0
0
0
0
0
0
0
0
0
0
0
0
0
0
0
0
0
0
0
0
0
0
0
0
0
0
0
0
0
0
0
0
0
0
0
0
0
0
0
0
0
0
0
0
0
0
0
0
0
0
0
0
0
0
0
0
0
0
0
0
0
0
0
0
0
0
0
0
0
0
0
0
0
0
0
0
0
0
0
0
0
0
0
0
0
0
0
0
0
0
0
0
0
0
0
0
0
0
0
0
0
0
0
0
0
0
0
0
0
0
0
0
0
0
0
0
0
0
0
0
0
0
0
0
0
0
0
0
0
0
0
0
0
0
0
0
0
0
0
0
0
0
0
0
0
0
0
0
0
0
0
0
0
0
0
0
0
0
0
0
0
0
0
0
0
0
0
0
0
0
0
0
0
0
0
0
0
0
0
0
0
0
0
0
0
0
0
0
0
0
0
0
0
0
0
0
0
0
0
0
0
0
0
0
0
0
0
0
0
0
0
0
0
0
0
0
0
0
0
0
0
0
0
0
0
0
0
0
0
0
0
0
0
0
0
0
0
0
0
0
0
0
0
0
0
0
0
0
0
0
0
0
0
0
0
0
0
0
0
0
0
0
0
0
0
0
0
0
0
0
0
0
0
0
0
0
0
0
0
0
0
0
0
0
0
0
0
0
0
0
0
0
0
0
0
0
0
0
0
0
0
0
0
0
0
0
0
0
0
0
0
0
0
0
0
0
0
0
0
0
0
0
0
0
0
0
0
0
3809.959129
9039.328588
20678.28235
45699.0834
97096.62557
200984.2974
387756.973
702521.1945
1120262.293
1519779.081
1665052.908
1402327.139
2825641.531
18809167.29
170499083.3
813537921.2
1663204384
2202210639
2402150180
2363975779
2148443736
1831961274
1495931862
1193416888
939180039.7
740040370.5
585985565.9
468875831.6
379078447.3
309600450.6
255255788
212268265.9
177911214.6
150408266.5
127930867.9
109632825.4
94439064.01
81920273.5
71393862.78
62513741.23
55041055.52
48679899.15
43230953.18
38545279.54
34499355.09
30990892.93
27935281.42
25262065.21
22912831.34
20846253.73
19034216.95
17421919.12
15980255.55
14689176.35
13552070.86
12520709.58
11586154.73
10758307.31
9996008.682
9312206.39
8687808.697
8116847.887
7599959.971
7121304.012
6688337.33
6285594.969
5918360.353
5578496.789
5262981.011
4975603.681
4700912.19
4457172.092
4223803.3
4007727.699
3809470.157
3619271.857
3446570.982
3284535.956
3128822.184
2988070.519
2855421.39
2727768.171
2610432.594
2501516.364
2396549.568
2296096.94
2206396.334
2119824.221
2036243.256
1957446.021
1886044.656
1817010.544
1750240.71
1686154.888
1629024.795
1573694.409
1520075.934
1468092.175
1419676.06
1375128.899
1331874.225
1289860.137
1249032.333
1210319.728
1175192.464
1141004.908
1107721.35
1075304.705
1043716.394
1014387.884
987229.867
960729.2679
934863.9525
909610.9603
884946.4786
860914.4123
839646.3447
818847.8565
798506.1235
778607.7792
759138.9197
740084.9525
721430.2897
704576.3309
688499.9127
672749.1994
657316.5574
642194.0706
627373.4269
612845.7295
598601.2902
585437.0276
573144.8004
561085.3142
549254.0921
537646.4657
526257.4421
515081.7058
504113.4452
493346.3005
483030.3911
473782.3082
464697.7581
455773.9298
447007.8398
438396.3761
429936.2249
421623.8864
413455.5778
405427.2109
397534.2638
390177.2423
383411.3281
376755.3994
370207.5597
363765.8881
357428.4087
351193.1024
345057.8702
339020.5298
333078.7668
327230.1105
321471.8687
315801.0809
310814.7833
305971.4756
301199.8544
296498.9663
291867.8575
287305.5755
282811.1569
278383.6233
274021.9657
269725.1316
265492.0045
261321.3796
257211.9331
253162.1815
249173.6022
245722.8135
242320.5815
238966.4565
235659.988
232400.713
229188.162
226021.8465
222901.2645
219825.8831
216795.1445
213808.4444
210865.1353
207964.4947
205105.7228
202287.8998
199509.9686
196770.6671
194068.4864
191682.3861
189388.2697
187126.4338
184896.4755
182697.9761
180530.5228
178393.6848
176287.0378
174210.1415
172162.5629
170143.8503
168153.5584
166191.2237
164256.3879
162348.5688
160467.2856
158612.0295
156782.2861
154977.5004
153197.0978
151440.447
149706.8732
147995.6109
146395.8224
144948.7109
143519.2517
142107.1009
140711.9257
139333.3805
137971.1304
136624.8261
135294.1285
133978.6857
132678.156
131392.1832
130120.4209
128862.5103
127618.1015
126386.8312
125168.3444
123962.2738
122768.2601
121585.93
120414.9167
119254.8403
118105.3251
116965.9801
115836.4149
114716.2218
113604.9886
112502.2786
111407.6418
110320.5942
109240.6228
108167.1609
107241.095
106324.3818
105412.1739
104504.1921
103600.152
102699.7159
101803.3546
100909.3862
100018.3099
99130.00122
98244.23692
97360.80001
96479.48151
95600.08041
94722.40344
93846.26712
92971.49532
92097.92243
91225.38937
90353.74917
89482.86068
88612.59478
87742.8268
86873.44537
86004.3421
85135.4208
84266.58586
83397.75416
82528.84037
81659.76854
80790.45602
79920.82758
79050.79546
78180.2722
77309.14881
76437.30897
75611.90294
74861.85046
74111.08373
73359.69557
72607.78403
71855.47574
71102.89393
70350.04149
69596.90176
68844.72429
68092.8626
67341.48463
66590.7609
65840.88264
65092.03808
64344.43575
63598.27983
62853.79222
62111.18915
61370.7054
60632.56921
59897.02446
59164.30693
58434.66835
57708.35102
56985.60972
56266.68772
55551.84022
54841.30888
54135.34282
53434.17462
52738.04223
52047.16365
51361.75596
50682.01151
50008.11703
49340.22877
48775.04256
48216.99503
47664.71234
47118.44259
46578.43766
46044.93811
45518.18764
44998.4183
44485.86294
43980.74242
43483.27762
42993.67724
42512.14796
42038.88415
41574.07722
41117.90622
40670.54548
40232.15707
39802.89718
39382.90991
38972.33204
38571.2885
38179.8957
37798.25849
37426.47206
37064.62055
36712.77713
36371.00432
36039.35296
35717.8639
35406.56496
35105.47452
34814.59755
34533.93046
34263.45486
34003.14442
33752.95806
33512.84779
33282.74946
33062.59274
32852.29154
32651.75477
32460.87414
32279.53714
32107.6149
31944.97556
31791.46946
31646.94482
31511.23321
31384.16534
31265.55389
31155.21153
31052.93438
30958.51984
30871.74742
30792.39874
30720.23925
30655.0378
30596.54578
30544.51874
30498.69675
30458.82525
30424.63299
30395.85479
30372.2109
30353.42878
30339.22017
30329.30463
30323.38824
30321.18597
30322.3982
30326.73473
30333.8931
30343.58113
30355.49346
30369.33537
30384.80134
30401.59721
30419.41723
30437.96728
30456.94397
30476.05618
30495.00285
30513.49532
30531.23739
30547.94574
30563.32903
30577.10895
30589.00149
30598.73614
30606.0365
30610.63979
30612.27972
30610.70401
30605.65698
30596.89722
30584.18253
30567.28638
30545.98413
30520.07294
30489.37355
30453.78638
30412.33938
30366.75712
30314.23228
30255.96551
30190.66477
30118.77021
30041.14452
29957.57341
29868.0368
29772.54922
29671.16144
29563.97395
29451.13949
29332.87777
29209.48173
29081.33598
28948.931
28812.88893
28673.99063
28533.21781
28391.81234
28251.35356
28113.87927
27982.04088
27859.34594
27750.4503
27661.5871
0
0
0
0
0
0
0
0
0
0
0
0
0
0
0
0
0
0
0
0
0
0
0
0
0
0
0
0
0
0
0
0
0
0
0
0
0
0
0
0
0
0
0
0
0
0
0
0
0
0
0
0
0
0
0
0
0
0
0
0
0
0
0
0
0
0
0
0
0
0
0
0
0
0
0
0
0
0
0
0
0
0
0
0
0
0
0
)
;

boundaryField
{
    inlet
    {
        type            calculated;
        value           uniform 0;
    }
    outlet
    {
        type            calculated;
        value           uniform 0;
    }
    upperWall
    {
        type            empty;
    }
    lowerWall
    {
        type            empty;
    }
    frontAndBack
    {
        type            empty;
    }
}


// ************************************************************************* //
