/*--------------------------------*- C++ -*----------------------------------*\
  =========                 |
  \\      /  F ield         | OpenFOAM: The Open Source CFD Toolbox
   \\    /   O peration     | Website:  https://openfoam.org
    \\  /    A nd           | Version:  9
     \\/     M anipulation  |
\*---------------------------------------------------------------------------*/
FoamFile
{
    format      ascii;
    class       volScalarField;
    location    "0.019";
    object      k;
}
// * * * * * * * * * * * * * * * * * * * * * * * * * * * * * * * * * * * * * //

dimensions      [1 1 -3 -1 0 0 0];

internalField   nonuniform List<scalar> 
1000
(
0.04252936087
0.04252936087
0.04252936087
0.04252936087
0.04252936087
0.04252936087
0.04252936087
0.04252936087
0.04252936087
0.04252936087
0.04252936087
0.04252936087
0.04252936087
0.04252936087
0.04252936087
0.04252936087
0.04252936087
0.04252936087
0.04252936087
0.04252936087
0.04252936087
0.04252936087
0.04252936087
0.04252936087
0.04252936087
0.04252936087
0.04252936087
0.04252936087
0.04252936087
0.04252936087
0.04252936087
0.04252936087
0.04252936087
0.04252936087
0.04252936087
0.04252936087
0.04252936087
0.04252936087
0.04252936087
0.04252936087
0.04252936087
0.04252936087
0.04252936087
0.04252936087
0.04252936087
0.04252936087
0.04252936087
0.04252936087
0.04252936087
0.04252936087
0.04252936087
0.04252936087
0.04252936087
0.04252936087
0.04252936087
0.04252936087
0.04252936087
0.04252936087
0.04252936087
0.04252936087
0.04252936087
0.04252936087
0.04252936087
0.04252936087
0.04252936087
0.04252936087
0.04252936087
0.04252936087
0.04252936087
0.04252936087
0.04252936087
0.04252936087
0.04252936087
0.04252936087
0.04252936087
0.04252936087
0.04252936087
0.04252936087
0.04252936087
0.04252936087
0.04252936087
0.04252936087
0.04252936087
0.04252936087
0.04252936087
0.04252936087
0.04252936087
0.04252936087
0.04252936087
0.04252936087
0.04252936087
0.04252936087
0.04252936087
0.04252936087
0.04252936087
0.04252936087
0.04252936087
0.04252936087
0.04252936087
0.04252936087
0.04252936087
0.04252936087
0.04252936087
0.04252936087
0.04252936087
0.04252936087
0.04252936087
0.04252936087
0.04252936087
0.04252936087
0.04252936087
0.04252936087
0.04252936087
0.04252936087
0.04252936087
0.04252936087
0.04252936087
0.04252936087
0.04252936087
0.04252936087
0.04252936087
0.04252936087
0.04252936087
0.04252936087
0.04252936087
0.04252936087
0.04252936087
0.04252936087
0.04252936087
0.04252936087
0.04252936087
0.04252936087
0.04252936087
0.04252936087
0.04252936087
0.04252936087
0.04252936087
0.04252936087
0.04252936087
0.04252936087
0.04252936087
0.04252936087
0.04252936087
0.04252936087
0.04252936087
0.04252936087
0.04252936087
0.04252936087
0.04252936087
0.04252936087
0.04252936087
0.04252936087
0.04252936087
0.04252936087
0.04252936087
0.04252936087
0.04252936087
0.04252936087
0.04252936087
0.04252936087
0.04252936087
0.04252936087
0.04252936087
0.04252936087
0.04252936087
0.04252936087
0.04252936087
0.04252936087
0.04252936087
0.04252936087
0.04252936087
0.04252936087
0.04252936087
0.04252936087
0.04252936087
0.04252936087
0.04252936087
0.04252936087
0.04252936087
0.04252936087
0.04252936087
0.04252936087
0.04252936087
0.04252936087
0.04252936087
0.04252936087
0.04252936087
0.04252936087
0.04252936087
0.04252936087
0.04252936087
0.04252936087
0.04252936087
0.04252936087
0.04252936087
0.04252936087
0.04252936087
0.04252936087
0.04252936087
0.04252936087
0.04252936087
0.04252936087
0.04252936087
0.04252936087
0.04252936087
0.04252936087
0.04252936087
0.04252936087
0.04252936087
0.04252936087
0.04252936087
0.04252936087
0.04252936087
0.04252936087
0.04252936087
0.04252936087
0.04252936087
0.04252936087
0.04252936087
0.04252936087
0.04252936087
0.04252936087
0.04252936087
0.04252936087
0.04252936087
0.04252936087
0.04252936087
0.04252936087
0.04252936087
0.04252936087
0.04252936087
0.04252936087
0.04252936087
0.04252936087
0.04252936087
0.04252936087
0.04252936087
0.04252936087
0.04252936087
0.04252936087
0.04252936087
0.04252936087
0.04252936087
0.04252936087
0.04252936087
0.04252936087
0.04252936087
0.04252936087
0.04252936087
0.04252936087
0.04252936087
0.04252936087
0.04252936087
0.04252936087
0.04252936087
0.04252936087
0.04252936087
0.04252936087
0.04252936087
0.04252936087
0.04252936087
0.04252936087
0.04252936087
0.04252936087
0.04252936087
0.04252936087
0.04252936087
0.04252936087
0.04252936087
0.04252936087
0.04252936087
0.04252936087
0.04252936087
0.04252936087
0.04252936087
0.04252936087
0.04252936087
0.04252936087
0.04252936087
0.04252936087
0.04252936087
0.04252936087
0.04252936087
0.04252936087
0.04252936087
0.04252936087
0.04252936087
0.04252936087
0.04252936087
0.04252936087
0.04252936087
0.04252936087
0.04252936087
0.04252936087
0.04252936087
0.04252936087
0.04252936087
0.04252936087
0.04252936087
0.04252936087
0.04252936087
0.04252936087
0.04252936087
0.04252936087
0.04252936087
0.04252936087
0.04252936087
0.04252936087
0.04252936087
0.04252936087
0.04252936087
0.04252936087
0.04252936087
0.04252936087
0.04252936087
0.04252936087
0.04252936087
0.04252936087
0.04252936087
0.04252936087
0.04252936087
0.04252936087
0.04252936087
0.04252936087
0.04252936087
0.04252936087
0.04252936087
0.04252936087
0.04252936087
0.04252936087
0.04252936087
0.04252936087
0.04252936087
0.04252936087
0.04252936087
0.04252936087
0.04252936087
0.04252936087
0.04252936087
0.04252936087
0.04252936087
0.04252936087
0.04252936087
0.04252936087
0.04252936087
0.04252936087
0.04252936087
0.04252936087
0.04252936087
0.04252936087
0.04252936087
0.04252936087
0.04252936087
0.04252936087
0.04252936087
0.04252936087
0.04252936087
0.04252936087
0.04252936087
0.04252936087
0.04252936087
0.04252936087
0.04252936087
0.04252936087
0.04252936087
0.04252936087
0.04252936087
0.04252936087
0.04252936087
0.04252936087
0.04252936087
0.04252936087
0.04252936087
0.04252936087
0.04252936087
0.04252936087
0.04252936087
0.04252936087
0.04252936087
0.04252936087
0.04252936087
0.04252936087
0.04252936087
0.04252936087
0.04252936087
0.04252936087
0.04252936087
0.04252936087
0.04252936087
0.04252936087
0.04252936087
0.04252936087
0.04252936087
0.04252936087
0.04252936087
0.04252936087
0.04252936087
0.04252936087
0.04252936087
0.04252936086
0.04252936086
0.04252936086
0.04252936086
0.04252936086
0.04252936086
0.04252936086
0.04252936085
0.04252936085
0.04252936084
0.04252936084
0.04252936082
0.04252936081
0.04252936079
0.04252936076
0.04252936073
0.04252936068
0.04252936061
0.04252936052
0.04252936039
0.04252936023
0.04252936
0.04252935969
0.04252935927
0.04252935871
0.04252935794
0.0425293569
0.04252935548
0.04252935357
0.04252935098
0.04252934746
0.04252934269
0.04252933623
0.04252932748
0.04252931561
0.04252929953
0.04252927773
0.04252924818
0.04252920813
0.04252915385
0.04252908028
0.04252898056
0.04252884541
0.04252866223
0.04252841396
0.04252807747
0.0425276214
0.04252700328
0.04252616553
0.04252503013
0.04252349136
0.04252140593
0.04251857975
0.0425147498
0.04250955982
0.04250252732
0.04249299911
0.04248009159
0.04246261107
0.04243894892
0.04240676803
0.04236327078
0.04230466516
0.04222602568
0.04212124561
0.04198277241
0.04180463811
0.04158451754
0.04133752738
0.04111983259
0.04108430104
0.04157124303
0.04316610326
0.0462882452
0.0519041384
0.06011845184
0.06951204474
0.07854982051
0.08645307645
0.09303808689
0.09832172501
0.1024411485
0.1055960388
0.107998416
0.1098621097
0.1113308635
0.1124990268
0.1134340446
0.1141907465
0.1148107315
0.1153242585
0.1157537621
0.1161161045
0.1164236522
0.1166871409
0.1169135903
0.1171101213
0.1172811209
0.1174312075
0.1175635497
0.1176805949
0.117784751
0.117877889
0.1179615188
0.1180369183
0.1181051777
0.1181672246
0.1182238424
0.1182756931
0.1183233121
0.1183671259
0.1184076253
0.1184451677
0.1184800442
0.1185124181
0.1185426401
0.118570884
0.1185972285
0.118621956
0.1186451074
0.1186668451
0.1186872704
0.118706445
0.1187245025
0.1187414695
0.1187574676
0.1187725226
0.118786718
0.1188001091
0.1188127203
0.1188246654
0.1188359008
0.1188465561
0.1188566352
0.1188661693
0.1188752336
0.1188838127
0.1188919678
0.1188997469
0.1189071358
0.1189141899
0.1189209452
0.118927395
0.118933568
0.1189395045
0.118945218
0.1189506924
0.1189559788
0.1189610898
0.1189660281
0.1189707917
0.1189754125
0.1189798984
0.1189842544
0.1189884648
0.1189925613
0.1189965487
0.1190004316
0.1190042043
0.1190078688
0.1190114406
0.1190149222
0.1190183164
0.11902162
0.1190248263
0.119027953
0.119031002
0.1190339751
0.1190368746
0.1190396957
0.1190424409
0.1190451192
0.1190477323
0.1190502821
0.1190527706
0.1190552
0.1190575606
0.1190598671
0.1190621212
0.1190643249
0.1190664802
0.1190685892
0.1190706542
0.1190726683
0.1190746402
0.1190765742
0.1190784719
0.119080335
0.1190821652
0.119083964
0.1190857332
0.1190874695
0.1190891756
0.1190908565
0.1190925132
0.1190941467
0.1190957579
0.1190973477
0.1190989171
0.1191004669
0.1191019969
0.1191035047
0.1191049953
0.1191064692
0.1191079266
0.119109368
0.1191107936
0.1191122038
0.1191135988
0.1191149792
0.1191163452
0.1191176952
0.119119029
0.1191203495
0.1191216567
0.1191229507
0.1191242315
0.1191254993
0.1191267541
0.1191279961
0.1191292254
0.1191304423
0.119131647
0.1191328397
0.1191340174
0.1191351833
0.1191363378
0.1191374809
0.1191386126
0.1191397329
0.119140842
0.1191419399
0.1191430266
0.1191441022
0.1191451667
0.1191462204
0.1191472632
0.1191482955
0.1191493172
0.1191503258
0.1191513241
0.1191523123
0.1191532901
0.1191542577
0.1191552149
0.1191561617
0.1191570982
0.1191580242
0.1191589397
0.1191598447
0.1191607392
0.1191616232
0.1191624967
0.1191633596
0.1191642121
0.1191650541
0.1191658857
0.1191667053
0.1191675141
0.1191683126
0.1191691008
0.1191698786
0.1191706459
0.1191714027
0.119172149
0.1191728848
0.11917361
0.1191743246
0.1191750287
0.1191757221
0.119176405
0.1191770773
0.119177739
0.1191783902
0.1191790309
0.1191796612
0.1191802811
0.1191808908
0.1191814902
0.1191820796
0.1191826584
0.1191832264
0.1191837847
0.1191843333
0.1191848722
0.1191854016
0.1191859215
0.1191864319
0.119186933
0.1191874247
0.1191879073
0.1191883808
0.1191888453
0.1191893009
0.1191897477
0.1191901859
0.1191906154
0.1191910366
0.1191914494
0.1191918541
0.1191922507
0.1191926394
0.1191930205
0.1191933939
0.1191937599
0.1191941188
0.1191944705
0.1191948154
0.1191951537
0.1191954855
0.1191958112
0.1191961309
0.1191964438
0.1191967512
0.1191970533
0.1191973503
0.1191976424
0.1191979299
0.1191982129
0.1191984916
0.1191987663
0.1191990372
0.1191993045
0.1191995685
0.1191998293
0.1192000872
0.1192003424
0.1192005952
0.1192008458
0.1192010944
0.1192013413
0.1192015867
0.1192018308
0.1192020738
0.1192023161
0.1192025578
0.1192027992
0.1192030406
0.119203282
0.1192035239
0.1192037664
0.1192040098
0.1192042543
0.1192045001
0.1192047474
0.1192049966
0.1192052479
0.1192055015
0.1192057572
0.1192060151
0.119206276
0.11920654
0.1192068073
0.1192070781
0.1192073525
0.1192076306
0.1192079127
0.1192081988
0.119208489
0.1192087836
0.1192090825
0.1192093859
0.119209694
0.1192100067
0.1192103241
0.1192106464
0.1192109736
0.1192113057
0.1192116428
0.119211985
0.1192123321
0.1192126844
0.1192130418
0.1192134042
0.1192137717
0.1192141443
0.119214522
0.1192149047
0.1192152924
0.1192156851
0.1192160827
0.1192164851
0.1192168924
0.1192173044
0.1192177211
0.1192181446
0.1192185725
0.1192190048
0.1192194413
0.1192198819
0.1192203264
0.1192207746
0.1192212264
0.1192216815
0.1192221399
0.1192226012
0.1192230654
0.1192235322
0.1192240014
0.1192244727
0.119224946
0.1192254211
0.1192258977
0.1192263755
0.1192268544
0.1192273342
0.1192278145
0.1192282951
0.1192287758
0.1192292564
0.1192297366
0.1192302161
0.1192306947
0.1192311721
0.1192316481
0.1192321225
0.119232595
0.1192330654
0.1192335333
0.1192339986
0.119234461
0.1192349203
0.1192353762
0.1192358286
0.1192362771
0.1192367215
0.1192371617
0.1192375973
0.1192380283
0.1192384543
0.1192388751
0.1192392907
0.1192397007
0.119240105
0.1192405033
0.1192408956
0.1192412816
0.1192416612
0.1192420343
0.1192424006
0.11924276
0.1192431124
0.1192434577
0.1192437957
0.1192441263
0.1192444494
0.119244765
0.1192450729
0.119245373
0.1192456653
0.1192459498
0.1192462262
0.1192464947
0.1192467551
0.1192470075
0.1192472517
0.1192474878
0.1192477159
0.1192479358
0.1192481475
0.1192483512
0.1192485469
0.1192487345
0.1192489141
0.1192490857
0.1192492495
0.1192494055
0.1192495537
0.1192496943
0.1192498273
0.1192499528
0.119250071
0.1192501819
0.1192502856
0.1192503824
0.1192504722
0.1192505553
0.1192506319
0.1192507019
0.1192507656
0.1192508232
0.1192508749
0.1192509207
0.1192509609
0.1192509956
0.119251025
0.1192510494
0.1192510688
0.1192510835
0.1192510936
0.1192510995
0.1192511016
0.1192511002
0.1192510948
0.1192510857
0.1192510732
0.1192510574
0.1192510385
0.1192510165
0.1192509916
0.1192509639
0.1192509335
0.1192509004
0.1192508646
0.1192508262
0.1192507849
0.1192507407
0.1192506932
0.1192506421
0.1192505869
0.1192505267
0.1192504605
0.1192503867
0.1192503035
0.1192501904
0.1192500654
0.1192499393
0.1192498121
0.1192496842
0.1192495557
0.119249427
0.1192492982
0.1192491697
0.1192490415
0.1192489142
0.1192487878
0.1192486626
0.119248539
0.1192484172
0.1192482974
0.11924818
0.1192480652
0.1192479532
0.1192478444
0.1192477391
0.1192476374
0.1192475398
0.1192474464
0.1192473575
0.1192472735
0.1192471947
0.1192471212
0.1192470534
0.1192469916
0.1192469361
0.1192468872
0.1192468451
0.1192468102
0.1192467827
0.1192467629
0.1192467512
0.119246748
0.1192467529
0.1192467674
0.1192467914
0.1192468249
0.1192468683
0.1192469219
0.1192469859
0.1192470607
0.1192471465
0.1192472437
0.1192473525
0.1192474734
0.1192476064
0.1192477521
0.1192479105
0.1192480821
0.1192482671
0.1192484659
0.1192486785
0.1192489054
0.1192491467
0.1192494028
0.1192496736
0.1192499596
0.1192502607
0.1192505772
0.119250909
0.1192512561
0.1192516184
0.1192519959
0.1192523881
0.1192527946
0.1192532149
0.1192536482
0.1192540933
0.1192545488
0.1192550132
0.1192554841
0.1192559587
0.1192564337
0.1192569048
0.1192573667
0.119257813
0.1192582357
0.1192586252
0.1192589696
0.1192592548
0.1192594634
0.1192595746
)
;

boundaryField
{
    inlet
    {
        type            calculated;
        value           uniform 0.04252936087;
    }
    outlet
    {
        type            calculated;
        value           uniform 0.1192595746;
    }
    upperWall
    {
        type            empty;
    }
    lowerWall
    {
        type            empty;
    }
    frontAndBack
    {
        type            empty;
    }
}


// ************************************************************************* //
