/*--------------------------------*- C++ -*----------------------------------*\
  =========                 |
  \\      /  F ield         | OpenFOAM: The Open Source CFD Toolbox
   \\    /   O peration     | Website:  https://openfoam.org
    \\  /    A nd           | Version:  9
     \\/     M anipulation  |
\*---------------------------------------------------------------------------*/
FoamFile
{
    format      ascii;
    class       volScalarField;
    location    "0.019";
    object      N2;
}
// * * * * * * * * * * * * * * * * * * * * * * * * * * * * * * * * * * * * * //

dimensions      [0 0 0 0 0 0 0];

internalField   nonuniform List<scalar> 
1000
(
0.7559971151
0.7559971151
0.7559971151
0.7559971151
0.7559971151
0.7559971151
0.7559971151
0.7559971151
0.7559971151
0.7559971151
0.7559971151
0.7559971151
0.7559971151
0.7559971151
0.7559971151
0.7559971151
0.7559971151
0.7559971151
0.7559971151
0.7559971151
0.7559971151
0.7559971151
0.7559971151
0.7559971151
0.7559971151
0.7559971151
0.7559971151
0.7559971151
0.7559971151
0.7559971151
0.7559971151
0.7559971151
0.7559971151
0.7559971151
0.7559971151
0.7559971151
0.7559971151
0.7559971151
0.7559971151
0.7559971151
0.7559971151
0.7559971151
0.7559971151
0.7559971151
0.7559971151
0.7559971151
0.7559971151
0.7559971151
0.7559971151
0.7559971151
0.7559971151
0.7559971151
0.7559971151
0.7559971151
0.7559971151
0.7559971151
0.7559971151
0.7559971151
0.7559971151
0.7559971151
0.7559971151
0.7559971151
0.7559971151
0.7559971151
0.7559971151
0.7559971151
0.7559971151
0.7559971151
0.7559971151
0.7559971151
0.7559971151
0.7559971151
0.7559971151
0.7559971151
0.7559971151
0.7559971151
0.7559971151
0.7559971151
0.7559971151
0.7559971151
0.7559971151
0.7559971151
0.7559971151
0.7559971151
0.7559971151
0.7559971151
0.7559971151
0.7559971151
0.7559971151
0.7559971151
0.7559971151
0.7559971151
0.7559971151
0.7559971151
0.7559971151
0.7559971151
0.7559971151
0.7559971151
0.7559971151
0.7559971151
0.7559971151
0.7559971151
0.7559971151
0.7559971151
0.7559971151
0.7559971151
0.7559971151
0.7559971151
0.7559971151
0.7559971151
0.7559971151
0.7559971151
0.7559971151
0.7559971151
0.7559971151
0.7559971151
0.7559971151
0.7559971151
0.7559971151
0.7559971151
0.7559971151
0.7559971151
0.7559971151
0.7559971151
0.7559971151
0.7559971151
0.7559971151
0.7559971151
0.7559971151
0.7559971151
0.7559971151
0.7559971151
0.7559971151
0.7559971151
0.7559971151
0.7559971151
0.7559971151
0.7559971151
0.7559971151
0.7559971151
0.7559971151
0.7559971151
0.7559971151
0.7559971151
0.7559971151
0.7559971151
0.7559971151
0.7559971151
0.7559971151
0.7559971151
0.7559971151
0.7559971151
0.7559971151
0.7559971151
0.7559971151
0.7559971151
0.7559971151
0.7559971151
0.7559971151
0.7559971151
0.7559971151
0.7559971151
0.7559971151
0.7559971151
0.7559971151
0.7559971151
0.7559971151
0.7559971151
0.7559971151
0.7559971151
0.7559971151
0.7559971151
0.7559971151
0.7559971151
0.7559971151
0.7559971151
0.7559971151
0.7559971151
0.7559971151
0.7559971151
0.7559971151
0.7559971151
0.7559971151
0.7559971151
0.7559971151
0.7559971151
0.7559971151
0.7559971151
0.7559971151
0.7559971151
0.7559971151
0.7559971151
0.7559971151
0.7559971151
0.7559971151
0.7559971151
0.7559971151
0.7559971151
0.7559971151
0.7559971151
0.7559971151
0.7559971151
0.7559971151
0.7559971151
0.7559971151
0.7559971151
0.7559971151
0.7559971151
0.7559971151
0.7559971151
0.7559971151
0.7559971151
0.7559971151
0.7559971151
0.7559971151
0.7559971151
0.7559971151
0.7559971151
0.7559971151
0.7559971151
0.7559971151
0.7559971151
0.7559971151
0.7559971151
0.7559971151
0.7559971151
0.7559971151
0.7559971151
0.7559971151
0.7559971151
0.7559971151
0.7559971151
0.7559971151
0.7559971151
0.7559971151
0.7559971151
0.7559971151
0.7559971151
0.7559971151
0.7559971151
0.7559971151
0.7559971151
0.7559971151
0.7559971151
0.7559971151
0.7559971151
0.7559971151
0.7559971151
0.7559971151
0.7559971151
0.7559971151
0.7559971151
0.7559971151
0.7559971151
0.7559971151
0.7559971151
0.7559971151
0.7559971151
0.7559971151
0.7559971151
0.7559971151
0.7559971151
0.7559971151
0.7559971151
0.7559971151
0.7559971151
0.7559971151
0.7559971151
0.7559971151
0.7559971151
0.7559971151
0.7559971151
0.7559971151
0.7559971151
0.7559971151
0.7559971151
0.7559971151
0.7559971151
0.7559971151
0.7559971151
0.7559971151
0.7559971151
0.7559971151
0.7559971151
0.7559971151
0.7559971151
0.7559971151
0.7559971151
0.7559971151
0.7559971151
0.7559971151
0.7559971151
0.7559971151
0.7559971151
0.7559971151
0.7559971151
0.7559971151
0.7559971151
0.7559971151
0.7559971151
0.7559971151
0.7559971151
0.7559971151
0.7559971151
0.7559971151
0.7559971151
0.7559971151
0.7559971151
0.7559971151
0.7559971151
0.7559971151
0.7559971151
0.7559971151
0.7559971151
0.7559971151
0.7559971151
0.7559971151
0.7559971151
0.7559971151
0.7559971151
0.7559971151
0.7559971151
0.7559971151
0.7559971151
0.7559971151
0.7559971151
0.7559971151
0.7559971151
0.7559971151
0.7559971151
0.7559971151
0.7559971151
0.7559971151
0.7559971151
0.7559971151
0.7559971151
0.7559971151
0.7559971151
0.7559971151
0.7559971151
0.7559971151
0.7559971151
0.7559971151
0.7559971151
0.7559971151
0.7559971151
0.7559971151
0.7559971151
0.7559971151
0.7559971151
0.7559971151
0.7559971151
0.7559971151
0.7559971151
0.7559971151
0.7559971151
0.7559971151
0.7559971151
0.7559971151
0.7559971151
0.7559971151
0.7559971151
0.7559971151
0.7559971151
0.7559971151
0.7559971151
0.7559971151
0.7559971151
0.7559971151
0.7559971151
0.7559971151
0.7559971151
0.7559971151
0.7559971151
0.7559971151
0.7559971151
0.7559971151
0.7559971151
0.7559971151
0.7559971151
0.7559971151
0.7559971151
0.7559971151
0.7559971151
0.7559971151
0.7559971151
0.7559971151
0.7559971151
0.7559971151
0.7559971151
0.7559971151
0.7559971151
0.7559971151
0.7559971151
0.7559971151
0.7559971151
0.7559971151
0.7559971151
0.7559971151
0.7559971151
0.7559971152
0.7559971152
0.7559971152
0.7559971152
0.7559971152
0.7559971152
0.7559971152
0.7559971152
0.7559971152
0.7559971152
0.7559971152
0.7559971152
0.7559971152
0.7559971152
0.7559971153
0.7559971153
0.7559971154
0.7559971154
0.7559971155
0.7559971157
0.7559971158
0.7559971161
0.7559971164
0.7559971169
0.7559971175
0.7559971183
0.7559971195
0.755997121
0.7559971231
0.7559971259
0.7559971297
0.7559971348
0.7559971418
0.7559971513
0.7559971642
0.7559971816
0.7559972052
0.7559972372
0.7559972806
0.7559973395
0.7559974192
0.7559975272
0.7559976737
0.7559978721
0.7559981411
0.7559985057
0.7559989998
0.7559996696
0.7560005772
0.7560018074
0.7560034745
0.7560057339
0.7560087957
0.756012945
0.7560185676
0.7560261864
0.7560365092
0.7560504943
0.7560694371
0.7560950867
0.7561297969
0.756176728
0.7562400843
0.7563253816
0.756439664
0.7565914415
0.7567897301
0.7570405783
0.7573372046
0.7576354508
0.7578018188
0.75756196
0.7567155172
0.7552649061
0.7537107345
0.7525842701
0.7520539739
0.7521694355
0.7527992764
0.7536428132
0.7544255139
0.7550247359
0.7554390187
0.7557060131
0.7558695019
0.7559653783
0.7560211438
0.7560533341
0.7560713806
0.756081001
0.7560854991
0.7560869908
0.7560865456
0.7560851785
0.7560830994
0.7560807927
0.7560782626
0.7560757391
0.756073248
0.7560707857
0.7560684055
0.7560661211
0.7560639314
0.7560618349
0.7560598299
0.7560579141
0.7560560846
0.7560543381
0.7560526673
0.7560510632
0.7560495343
0.756048078
0.7560466895
0.7560453563
0.7560440916
0.7560428905
0.7560417429
0.756040659
0.7560396288
0.7560386558
0.7560377377
0.7560368725
0.7560360608
0.7560352978
0.7560345842
0.7560339169
0.7560332943
0.7560327155
0.7560321777
0.7560316787
0.7560312153
0.7560307855
0.756030387
0.7560300172
0.7560296737
0.7560293563
0.7560290614
0.7560287858
0.7560285293
0.7560282884
0.7560280612
0.7560278488
0.7560276489
0.756027458
0.7560272753
0.7560271031
0.7560269366
0.7560267748
0.756026618
0.7560264669
0.7560263188
0.7560261733
0.7560260304
0.7560258937
0.7560257588
0.7560256256
0.7560254942
0.7560253662
0.756025242
0.7560251195
0.7560249989
0.7560248803
0.7560247653
0.7560246565
0.7560245498
0.7560244452
0.7560243429
0.7560242429
0.7560241467
0.7560240542
0.756023964
0.7560238761
0.7560237905
0.7560237072
0.7560236261
0.7560235505
0.7560234769
0.7560234051
0.756023335
0.7560232666
0.7560231997
0.7560231342
0.7560230732
0.7560230143
0.7560229563
0.7560228991
0.7560228426
0.7560227866
0.7560227311
0.756022676
0.7560226231
0.7560225718
0.7560225206
0.7560224693
0.7560224179
0.7560223663
0.7560223145
0.7560222624
0.7560222101
0.7560221578
0.7560221065
0.7560220548
0.7560220027
0.7560219502
0.7560218974
0.7560218442
0.7560217907
0.7560217368
0.7560216826
0.7560216281
0.756021574
0.7560215205
0.7560214667
0.7560214127
0.7560213585
0.7560213042
0.7560212496
0.756021195
0.7560211402
0.7560210854
0.7560210305
0.7560209756
0.7560209206
0.7560208668
0.7560208131
0.7560207594
0.7560207057
0.7560206521
0.7560205985
0.756020545
0.7560204916
0.7560204383
0.7560203851
0.756020332
0.7560202791
0.7560202263
0.7560201736
0.7560201211
0.7560200699
0.7560200189
0.756019968
0.7560199174
0.756019867
0.7560198168
0.7560197669
0.7560197173
0.756019668
0.756019619
0.7560195703
0.756019522
0.756019474
0.7560194265
0.7560193793
0.7560193326
0.7560192863
0.7560192406
0.756019196
0.756019152
0.7560191085
0.7560190655
0.756019023
0.756018981
0.7560189396
0.7560188987
0.7560188584
0.7560188187
0.7560187796
0.7560187411
0.7560187033
0.7560186661
0.7560186296
0.7560185937
0.7560185586
0.7560185241
0.7560184903
0.7560184572
0.7560184248
0.7560183932
0.7560183623
0.7560183323
0.7560183035
0.7560182754
0.756018248
0.7560182214
0.7560181955
0.7560181704
0.756018146
0.7560181223
0.7560180994
0.7560180773
0.7560180559
0.7560180352
0.7560180153
0.7560179962
0.7560179777
0.75601796
0.7560179431
0.7560179268
0.7560179113
0.7560178965
0.7560178823
0.7560178689
0.7560178562
0.7560178441
0.7560178327
0.756017822
0.7560178119
0.7560178025
0.7560177936
0.7560177854
0.7560177777
0.7560177711
0.756017765
0.7560177595
0.7560177545
0.75601775
0.756017746
0.7560177424
0.7560177393
0.7560177367
0.7560177344
0.7560177326
0.7560177311
0.75601773
0.7560177291
0.7560177286
0.7560177283
0.7560177283
0.7560177285
0.7560177289
0.7560177295
0.7560177302
0.756017731
0.756017732
0.7560177329
0.7560177339
0.7560177349
0.7560177359
0.7560177369
0.7560177377
0.7560177385
0.7560177391
0.7560177395
0.7560177397
0.7560177397
0.7560177395
0.7560177389
0.7560177383
0.7560177375
0.7560177363
0.7560177348
0.7560177328
0.7560177304
0.7560177275
0.7560177241
0.7560177202
0.7560177158
0.7560177107
0.756017705
0.7560176987
0.7560176918
0.7560176842
0.7560176759
0.7560176669
0.7560176571
0.7560176467
0.7560176354
0.7560176234
0.7560176105
0.7560175969
0.7560175824
0.7560175671
0.756017551
0.756017534
0.7560175161
0.7560174973
0.7560174777
0.7560174571
0.7560174356
0.7560174133
0.75601739
0.7560173658
0.7560173408
0.7560173148
0.7560172845
0.7560172533
0.7560172212
0.7560171883
0.7560171545
0.7560171199
0.7560170845
0.7560170482
0.7560170112
0.7560169733
0.7560169347
0.7560168953
0.7560168552
0.7560168144
0.7560167728
0.7560167306
0.7560166877
0.7560166442
0.7560166001
0.7560165554
0.7560165101
0.7560164643
0.756016418
0.7560163713
0.756016324
0.7560162764
0.7560162283
0.7560161799
0.7560161312
0.7560160821
0.7560160329
0.7560159833
0.7560159336
0.7560158837
0.7560158337
0.7560157836
0.7560157334
0.7560156832
0.756015633
0.7560155829
0.7560155328
0.7560154828
0.756015433
0.7560153834
0.756015334
0.7560152848
0.7560152359
0.7560151874
0.7560151391
0.7560150913
0.7560150439
0.756014997
0.7560149505
0.7560149046
0.7560148591
0.7560148143
0.7560147701
0.7560147265
0.7560146836
0.7560146413
0.7560145998
0.756014559
0.756014519
0.7560144797
0.7560144413
0.7560144037
0.756014367
0.7560143312
0.7560142962
0.7560142622
0.7560142291
0.7560141969
0.7560141657
0.7560141355
0.7560141063
0.7560140781
0.7560140509
0.7560140247
0.7560139996
0.7560139754
0.7560139524
0.7560139304
0.7560139094
0.7560138895
0.7560138707
0.7560138529
0.7560138362
0.7560138205
0.7560138059
0.7560137924
0.7560137798
0.7560137684
0.756013758
0.7560137486
0.7560137402
0.7560137328
0.7560137264
0.756013721
0.7560137166
0.7560137131
0.7560137106
0.756013709
0.7560137084
0.7560137086
0.7560137097
0.7560137117
0.7560137145
0.7560137182
0.7560137226
0.7560137278
0.7560137338
0.7560137405
0.7560137479
0.756013756
0.7560137647
0.7560137741
0.7560137841
0.7560137947
0.7560138059
0.7560138176
0.7560138298
0.7560138425
0.7560138557
0.7560138693
0.7560138834
0.7560138978
0.7560139126
0.7560139278
0.7560139433
0.7560139598
0.7560139767
0.7560139938
0.756014011
0.7560140283
0.7560140457
0.7560140631
0.7560140806
0.756014098
0.7560141153
0.7560141326
0.7560141497
0.7560141666
0.7560141834
0.7560141999
0.7560142161
0.756014232
0.7560142475
0.7560142627
0.7560142774
0.7560142917
0.7560143055
0.7560143187
0.7560143313
0.7560143434
0.7560143547
0.7560143654
0.7560143754
0.7560143845
0.7560143929
0.7560144004
0.756014407
0.7560144127
0.7560144175
0.7560144212
0.7560144239
0.7560144255
0.7560144259
0.7560144252
0.7560144233
0.75601442
0.7560144155
0.7560144096
0.7560144023
0.7560143937
0.7560143836
0.7560143719
0.7560143588
0.756014344
0.7560143277
0.7560143097
0.7560142899
0.7560142685
0.7560142452
0.7560142202
0.7560141933
0.7560141645
0.7560141338
0.7560141011
0.7560140664
0.7560140297
0.756013991
0.7560139502
0.7560139074
0.7560138625
0.7560138154
0.7560137664
0.7560137153
0.7560136622
0.7560136071
0.7560135502
0.7560134915
0.7560134313
0.7560133696
0.7560133067
0.7560132429
0.7560131787
0.7560131143
0.7560130505
0.756012988
0.7560129276
0.7560128703
0.7560128176
0.7560127709
0.7560127323
0.7560127041
0.756012689
)
;

boundaryField
{
    inlet
    {
        type            calculated;
        value           uniform 0.7559971151;
    }
    outlet
    {
        type            calculated;
        value           uniform 0.756012689;
    }
    upperWall
    {
        type            empty;
    }
    lowerWall
    {
        type            empty;
    }
    frontAndBack
    {
        type            empty;
    }
}


// ************************************************************************* //
