/*--------------------------------*- C++ -*----------------------------------*\
  =========                 |
  \\      /  F ield         | OpenFOAM: The Open Source CFD Toolbox
   \\    /   O peration     | Website:  https://openfoam.org
    \\  /    A nd           | Version:  9
     \\/     M anipulation  |
\*---------------------------------------------------------------------------*/
FoamFile
{
    format      ascii;
    class       volScalarField;
    location    "0.019";
    object      NO;
}
// * * * * * * * * * * * * * * * * * * * * * * * * * * * * * * * * * * * * * //

dimensions      [0 0 0 0 0 0 0];

internalField   nonuniform List<scalar> 
1000
(
2.675807852e-13
2.675807852e-13
2.675807852e-13
2.675807852e-13
2.675807852e-13
2.675807852e-13
2.675807852e-13
2.675807852e-13
2.675807852e-13
2.675807852e-13
2.675807852e-13
2.675807852e-13
2.675807852e-13
2.675807852e-13
2.675807852e-13
2.675807852e-13
2.675807852e-13
2.675807852e-13
2.675807852e-13
2.675807852e-13
2.675807852e-13
2.675807852e-13
2.675807852e-13
2.675807852e-13
2.675807852e-13
2.675807852e-13
2.675807852e-13
2.675807852e-13
2.675807852e-13
2.675807852e-13
2.675807852e-13
2.675807852e-13
2.675807852e-13
2.675807852e-13
2.675807852e-13
2.675807852e-13
2.675807852e-13
2.675807852e-13
2.675807852e-13
2.675807852e-13
2.675807852e-13
2.675807852e-13
2.675807852e-13
2.675807852e-13
2.675807852e-13
2.675807852e-13
2.675807852e-13
2.675807852e-13
2.675807852e-13
2.675807852e-13
2.675807852e-13
2.675807852e-13
2.675807852e-13
2.675807852e-13
2.675807852e-13
2.675807852e-13
2.675807852e-13
2.675807852e-13
2.675807852e-13
2.675807852e-13
2.675807852e-13
2.675807852e-13
2.675807852e-13
2.675807852e-13
2.675807852e-13
2.675807852e-13
2.675807852e-13
2.675807852e-13
2.675807852e-13
2.675807852e-13
2.675807852e-13
2.675807852e-13
2.675807852e-13
2.675807852e-13
2.675807852e-13
2.675807852e-13
2.675807852e-13
2.675807852e-13
2.675807852e-13
2.675807852e-13
2.675807852e-13
2.675807852e-13
2.675807852e-13
2.675807852e-13
2.675807852e-13
2.675807852e-13
2.675807852e-13
2.675807852e-13
2.675807852e-13
2.675807852e-13
2.675807852e-13
2.675807852e-13
2.675807852e-13
2.675807852e-13
2.675807852e-13
2.675807852e-13
2.675807852e-13
2.675807852e-13
2.675807852e-13
2.675807852e-13
2.675807852e-13
2.675807852e-13
2.675807852e-13
2.675807852e-13
2.675807852e-13
2.675807852e-13
2.675807852e-13
2.675807852e-13
2.675807852e-13
2.675807852e-13
2.675807852e-13
2.675807852e-13
2.675807852e-13
2.675807852e-13
2.675807852e-13
2.675807852e-13
2.675807852e-13
2.675807852e-13
2.675807852e-13
2.675807852e-13
2.675807852e-13
2.675807852e-13
2.675807852e-13
2.675807852e-13
2.675807852e-13
2.675807852e-13
2.675807852e-13
2.675807852e-13
2.675807852e-13
2.675807852e-13
2.675807852e-13
2.675807852e-13
2.675807852e-13
2.675807852e-13
2.675807852e-13
2.675807852e-13
2.675807852e-13
2.675807852e-13
2.675807852e-13
2.675807852e-13
2.675807852e-13
2.675807852e-13
2.675807852e-13
2.675807852e-13
2.675807852e-13
2.675807852e-13
2.675807852e-13
2.675807852e-13
2.675807852e-13
2.675807852e-13
2.675807852e-13
2.675807852e-13
2.675807852e-13
2.675807852e-13
2.675807852e-13
2.675807852e-13
2.675807852e-13
2.675807852e-13
2.675807852e-13
2.675807852e-13
2.675807852e-13
2.675807852e-13
2.675807852e-13
2.675807852e-13
2.675807852e-13
2.675807852e-13
2.675807852e-13
2.675807852e-13
2.675807852e-13
2.675807852e-13
2.675807852e-13
2.675807852e-13
2.675807852e-13
2.675807852e-13
2.675807852e-13
2.675807852e-13
2.675807852e-13
2.675807852e-13
2.675807852e-13
2.675807852e-13
2.675807852e-13
2.675807852e-13
2.675807852e-13
2.675807852e-13
2.675807852e-13
2.675807852e-13
2.675807852e-13
2.675807852e-13
2.675807852e-13
2.675807852e-13
2.675807852e-13
2.675807852e-13
2.675807852e-13
2.675807852e-13
2.675807852e-13
2.675807852e-13
2.675807852e-13
2.675807852e-13
2.675807852e-13
2.675807852e-13
2.675807852e-13
2.675807852e-13
2.675807852e-13
2.675807852e-13
2.675807852e-13
2.675807852e-13
2.675807852e-13
2.675807852e-13
2.675807852e-13
2.675807852e-13
2.675807852e-13
2.675807852e-13
2.675807852e-13
2.675807852e-13
2.675807852e-13
2.675807852e-13
2.675807852e-13
2.675807852e-13
2.675807852e-13
2.675807852e-13
2.675807852e-13
2.675807852e-13
2.675807852e-13
2.675807852e-13
2.675807852e-13
2.675807852e-13
2.675807852e-13
2.675807852e-13
2.675807852e-13
2.675807852e-13
2.675807852e-13
2.675807852e-13
2.675807852e-13
2.675807852e-13
2.675807852e-13
2.675807852e-13
2.675807852e-13
2.675807852e-13
2.675807852e-13
2.675807852e-13
2.675807852e-13
2.675807852e-13
2.675807852e-13
2.675807852e-13
2.675807852e-13
2.675807852e-13
2.675807852e-13
2.675807852e-13
2.675807852e-13
2.675807852e-13
2.675807852e-13
2.675807852e-13
2.675807852e-13
2.675807852e-13
2.675807852e-13
2.675807852e-13
2.675807852e-13
2.675807852e-13
2.675807852e-13
2.675807852e-13
2.675807852e-13
2.675807852e-13
2.675807852e-13
2.675807852e-13
2.675807852e-13
2.675807852e-13
2.675807852e-13
2.675807852e-13
2.675807852e-13
2.675807852e-13
2.675807852e-13
2.675807852e-13
2.675807852e-13
2.675807852e-13
2.675807852e-13
2.675807852e-13
2.675807852e-13
2.675807852e-13
2.675807852e-13
2.675807852e-13
2.675807852e-13
2.675807852e-13
2.675807852e-13
2.675807852e-13
2.675807852e-13
2.675807852e-13
2.675807852e-13
2.675807852e-13
2.675807852e-13
2.675807852e-13
2.675807852e-13
2.675807852e-13
2.675807852e-13
2.675807852e-13
2.675807852e-13
2.675807852e-13
2.675807852e-13
2.675807852e-13
2.675807852e-13
2.675807852e-13
2.675807852e-13
2.675807852e-13
2.675807852e-13
2.675807852e-13
2.675807852e-13
2.675807852e-13
2.675807852e-13
2.675807852e-13
2.675807852e-13
2.675807852e-13
2.675807852e-13
2.675807852e-13
2.675807852e-13
2.675807852e-13
2.675807852e-13
2.675807852e-13
2.675807852e-13
2.675807852e-13
2.675807852e-13
2.675807852e-13
2.675807852e-13
2.675807852e-13
2.675807852e-13
2.675807852e-13
2.675807852e-13
2.675807852e-13
2.675807852e-13
2.675807852e-13
2.675807852e-13
2.675807852e-13
2.675807852e-13
2.675807852e-13
2.675807852e-13
2.675807852e-13
2.675807852e-13
2.675807852e-13
2.675807852e-13
2.675807852e-13
2.675807852e-13
2.675807852e-13
2.675807852e-13
2.675807852e-13
2.675807852e-13
2.675807852e-13
2.675807852e-13
2.675807852e-13
2.675807852e-13
2.675807852e-13
2.675807852e-13
2.675807852e-13
2.675807852e-13
2.675807852e-13
2.675807852e-13
2.675807852e-13
2.675807852e-13
2.675807852e-13
2.675807852e-13
2.675807852e-13
2.675807852e-13
2.675807852e-13
2.675807852e-13
2.675807852e-13
2.675807852e-13
2.675807852e-13
2.675807852e-13
2.675807852e-13
2.675807852e-13
2.675807852e-13
2.675807852e-13
2.675807852e-13
2.675807852e-13
2.675807852e-13
2.675807852e-13
2.675807852e-13
2.675807852e-13
2.675807852e-13
2.675807852e-13
2.675807852e-13
2.675807852e-13
2.675807852e-13
2.675807852e-13
2.675807852e-13
2.675807852e-13
2.675807852e-13
2.675807852e-13
2.675807852e-13
2.675807852e-13
2.675807851e-13
2.675807851e-13
2.675807851e-13
2.675807851e-13
2.67580785e-13
2.675807849e-13
2.675807848e-13
2.675807847e-13
2.675807845e-13
2.675807843e-13
2.67580784e-13
2.675807835e-13
2.675807829e-13
2.675807821e-13
2.675807811e-13
2.675807796e-13
2.675807776e-13
2.675807749e-13
2.675807712e-13
2.675807662e-13
2.675807594e-13
2.675807502e-13
2.675807378e-13
2.675807209e-13
2.67580698e-13
2.67580667e-13
2.67580625e-13
2.67580568e-13
2.675804907e-13
2.675803859e-13
2.675802439e-13
2.675800514e-13
2.675797904e-13
2.675794367e-13
2.675789571e-13
2.675783071e-13
2.675774259e-13
2.675762315e-13
2.675746124e-13
2.675724178e-13
2.675694431e-13
2.675654111e-13
2.675599458e-13
2.67552538e-13
2.675424973e-13
2.675288881e-13
2.67510442e-13
2.674854403e-13
2.674515534e-13
2.674056235e-13
2.673433713e-13
2.672589964e-13
2.671446372e-13
2.669896387e-13
2.667795596e-13
2.664948271e-13
2.661089141e-13
2.655858685e-13
2.648769665e-13
2.639161789e-13
2.626140301e-13
2.608492867e-13
2.584577163e-13
2.552169064e-13
2.508258204e-13
2.448774107e-13
2.368222851e-13
2.259214154e-13
2.11186893e-13
1.913137355e-13
1.646176981e-13
1.29026662e-13
1.143551198e-13
1.056289356e-13
1.01942312e-13
1.162153088e-13
1.834853328e-13
4.403887287e-13
1.072294946e-12
2.638086458e-12
6.324472598e-12
1.486634403e-11
3.46113041e-11
7.545179663e-11
1.553886578e-10
4.91762487e-10
1.651764258e-09
4.414573303e-09
8.603901151e-09
1.44993985e-08
2.296632227e-08
3.472677065e-08
5.015183867e-08
6.881214231e-08
8.933119522e-08
1.098334085e-07
1.301490774e-07
1.486838343e-07
1.660177485e-07
1.812886917e-07
1.947011198e-07
2.064555805e-07
2.168204458e-07
2.260491574e-07
2.342820585e-07
2.416368032e-07
2.482388863e-07
2.543092138e-07
2.597838418e-07
2.647504449e-07
2.692656031e-07
2.733865409e-07
2.77165042e-07
2.806381658e-07
2.838400805e-07
2.868011684e-07
2.895476141e-07
2.921021966e-07
2.944846822e-07
2.967120214e-07
2.9879885e-07
3.007594428e-07
3.026081659e-07
3.043505824e-07
3.059947751e-07
3.075491081e-07
3.09027827e-07
3.10427974e-07
3.11755937e-07
3.130250668e-07
3.142286878e-07
3.153790867e-07
3.16475732e-07
3.175216472e-07
3.185235351e-07
3.194783308e-07
3.203954633e-07
3.21270426e-07
3.221110129e-07
3.22915728e-07
3.236866416e-07
3.24429581e-07
3.251366236e-07
3.258252155e-07
3.264815207e-07
3.27114276e-07
3.277263349e-07
3.283110375e-07
3.288802321e-07
3.294288812e-07
3.299543465e-07
3.304684759e-07
3.309647608e-07
3.314413235e-07
3.319068559e-07
3.323602259e-07
3.327967553e-07
3.33218595e-07
3.336366101e-07
3.340401363e-07
3.344299474e-07
3.348102707e-07
3.351867374e-07
3.355512061e-07
3.359042601e-07
3.362475099e-07
3.365906688e-07
3.369236252e-07
3.372468598e-07
3.37560804e-07
3.378706885e-07
3.381777963e-07
3.384764507e-07
3.387669562e-07
3.390496294e-07
3.393276275e-07
3.396056362e-07
3.398764256e-07
3.4014023e-07
3.403972953e-07
3.406478835e-07
3.408972664e-07
3.411454976e-07
3.413877139e-07
3.416241012e-07
3.418548551e-07
3.420801829e-07
3.42300591e-07
3.425251653e-07
3.427447187e-07
3.429594017e-07
3.431693698e-07
3.433747854e-07
3.435758197e-07
3.437726551e-07
3.439724271e-07
3.441703232e-07
3.443642869e-07
3.445544346e-07
3.447408854e-07
3.449237627e-07
3.451031952e-07
3.452793199e-07
3.454570915e-07
3.456354314e-07
3.458106412e-07
3.459827988e-07
3.461519824e-07
3.46318273e-07
3.464817536e-07
3.466425128e-07
3.468006445e-07
3.469580775e-07
3.471193336e-07
3.472780687e-07
3.474343294e-07
3.475881635e-07
3.477396193e-07
3.478887474e-07
3.480356005e-07
3.481802355e-07
3.483227137e-07
3.48463103e-07
3.486051623e-07
3.487494881e-07
3.48891761e-07
3.490320109e-07
3.491702683e-07
3.493065648e-07
3.494409327e-07
3.495734064e-07
3.49704022e-07
3.498328187e-07
3.499598391e-07
3.500851306e-07
3.502087465e-07
3.5033774e-07
3.504658478e-07
3.505922699e-07
3.507170245e-07
3.508401301e-07
3.509616052e-07
3.510814688e-07
3.511997401e-07
3.513164395e-07
3.514315884e-07
3.515452099e-07
3.516573292e-07
3.517679744e-07
3.518771777e-07
3.519850265e-07
3.520992053e-07
3.522119249e-07
3.523231943e-07
3.524330223e-07
3.525414182e-07
3.526483914e-07
3.527539515e-07
3.528581087e-07
3.529608739e-07
3.530622585e-07
3.531622753e-07
3.532609382e-07
3.533582632e-07
3.534542683e-07
3.535489748e-07
3.536424074e-07
3.537345967e-07
3.538255792e-07
3.539216735e-07
3.540177978e-07
3.541126133e-07
3.542061301e-07
3.542983587e-07
3.543893095e-07
3.544789939e-07
3.545674229e-07
3.546546084e-07
3.547405622e-07
3.54825297e-07
3.549088254e-07
3.549911606e-07
3.550723162e-07
3.551523067e-07
3.552311466e-07
3.553088519e-07
3.553854389e-07
3.554609255e-07
3.555353307e-07
3.556086757e-07
3.556809835e-07
3.557522807e-07
3.558256287e-07
3.559024661e-07
3.559782696e-07
3.560530545e-07
3.561268356e-07
3.561996284e-07
3.562714483e-07
3.563423113e-07
3.564122332e-07
3.564812307e-07
3.565493199e-07
3.56616518e-07
3.566828418e-07
3.567483088e-07
3.568129365e-07
3.56876743e-07
3.569397461e-07
3.570019645e-07
3.570634168e-07
3.571241222e-07
3.571840999e-07
3.572433699e-07
3.573019522e-07
3.573598677e-07
3.574171376e-07
3.574737838e-07
3.575298289e-07
3.575852969e-07
3.576402124e-07
3.57694602e-07
3.577484938e-07
3.578019189e-07
3.578626309e-07
3.579231384e-07
3.579832136e-07
3.580428786e-07
3.581021561e-07
3.581610715e-07
3.58219607e-07
3.58277861e-07
3.583358142e-07
3.583934813e-07
3.584508821e-07
3.585080365e-07
3.585649638e-07
3.586216831e-07
3.586782129e-07
3.587345714e-07
3.587907766e-07
3.588468458e-07
3.589027959e-07
3.589586434e-07
3.590144043e-07
3.590700941e-07
3.591257281e-07
3.591813207e-07
3.592368863e-07
3.592924386e-07
3.593479913e-07
3.594035574e-07
3.5945915e-07
3.595147817e-07
3.595704656e-07
3.596262142e-07
3.596820409e-07
3.597379592e-07
3.597939837e-07
3.598501297e-07
3.599111091e-07
3.599798076e-07
3.600486697e-07
3.601176942e-07
3.601868796e-07
3.602562217e-07
3.603257166e-07
3.603953692e-07
3.604651864e-07
3.605350741e-07
3.606050883e-07
3.6067522e-07
3.607454598e-07
3.608157966e-07
3.60886219e-07
3.609567138e-07
3.610272679e-07
3.610978665e-07
3.611684948e-07
3.612391364e-07
3.613097752e-07
3.613803932e-07
3.614509731e-07
3.615214958e-07
3.615919429e-07
3.616622945e-07
3.617325314e-07
3.618026333e-07
3.618725804e-07
3.619423523e-07
3.620119296e-07
3.620812923e-07
3.621504217e-07
3.622192989e-07
3.622879071e-07
3.623562294e-07
3.624242516e-07
3.625132959e-07
3.626021488e-07
3.626904105e-07
3.627780437e-07
3.628650097e-07
3.629512715e-07
3.630367911e-07
3.631215319e-07
3.632054569e-07
3.632885304e-07
3.633707165e-07
3.634519807e-07
3.635322884e-07
3.636116065e-07
3.636899021e-07
3.637671437e-07
3.638433003e-07
3.639183422e-07
3.639922404e-07
3.640649675e-07
3.641364966e-07
3.642068025e-07
3.642758609e-07
3.643436489e-07
3.644101449e-07
3.644753286e-07
3.645391811e-07
3.646016849e-07
3.646628238e-07
3.647225833e-07
3.647809502e-07
3.648379127e-07
3.648934609e-07
3.649475859e-07
3.650002809e-07
3.650515402e-07
3.651013599e-07
3.651497375e-07
3.651966723e-07
3.652421649e-07
3.652862178e-07
3.653288344e-07
3.653700206e-07
3.65409783e-07
3.654481303e-07
3.654850719e-07
3.6552062e-07
3.655547868e-07
3.655875874e-07
3.656190367e-07
3.656491527e-07
3.656779533e-07
3.65705459e-07
3.657316903e-07
3.657566704e-07
3.657804223e-07
3.658029717e-07
3.658243439e-07
3.658445669e-07
3.658636683e-07
3.658816782e-07
3.658986263e-07
3.659145446e-07
3.659294648e-07
3.659434208e-07
3.659564458e-07
3.659685754e-07
3.659798445e-07
3.659902902e-07
3.659999486e-07
3.66008858e-07
3.660170559e-07
3.660245819e-07
3.660314741e-07
3.660377731e-07
3.660435181e-07
3.660487503e-07
3.660535094e-07
3.660578374e-07
3.660617746e-07
3.660653631e-07
3.660686434e-07
3.660716581e-07
3.66074448e-07
3.660770553e-07
3.660795208e-07
3.660818868e-07
3.660841938e-07
3.660864835e-07
3.660887962e-07
3.66091173e-07
3.660936536e-07
3.660962782e-07
3.660990856e-07
3.66102115e-07
3.661054042e-07
3.66108991e-07
3.661129114e-07
3.661172015e-07
3.661218943e-07
3.661270201e-07
3.661325987e-07
3.66138765e-07
3.661452986e-07
3.661525758e-07
3.661604467e-07
3.661691053e-07
3.661784941e-07
3.661884912e-07
3.66199134e-07
3.662104313e-07
3.662223872e-07
3.662350005e-07
3.662482631e-07
3.662621595e-07
3.662766644e-07
3.662917422e-07
3.663073439e-07
3.663234054e-07
3.663398435e-07
3.663565523e-07
3.663733964e-07
3.663902031e-07
3.664067504e-07
3.664227503e-07
3.664378255e-07
3.664514752e-07
3.664630331e-07
3.664716063e-07
3.664705797e-07
3.664659742e-07
3.664613237e-07
3.664566363e-07
3.664519207e-07
3.664471856e-07
3.664424403e-07
3.664376928e-07
3.66432956e-07
3.664282337e-07
3.664235381e-07
3.664188792e-07
3.664142667e-07
3.664097103e-07
3.664052201e-07
3.664008057e-07
3.663964774e-07
3.66392245e-07
3.663881186e-07
3.663841086e-07
3.663802249e-07
3.663764781e-07
3.663728782e-07
3.663694358e-07
3.663661613e-07
3.663630651e-07
3.663601576e-07
3.663574496e-07
3.663549516e-07
3.663526742e-07
3.663506282e-07
3.663488241e-07
3.663472728e-07
3.663459851e-07
3.663449718e-07
3.663442438e-07
3.66343813e-07
3.66343694e-07
3.66343874e-07
3.663444081e-07
3.66345293e-07
3.663465297e-07
3.663481295e-07
3.663501036e-07
3.66352463e-07
3.66355219e-07
3.663583827e-07
3.663619651e-07
3.663659774e-07
3.663704305e-07
3.663753355e-07
3.663807032e-07
3.663865444e-07
3.663928697e-07
3.663996894e-07
3.664070139e-07
3.664148528e-07
3.664232156e-07
3.664321111e-07
3.664415476e-07
3.664515326e-07
3.664620725e-07
3.664731724e-07
3.664848362e-07
3.664970657e-07
3.665098604e-07
3.665232172e-07
3.665371294e-07
3.665515862e-07
3.665665717e-07
3.665820636e-07
3.665980322e-07
3.666144381e-07
3.66631231e-07
3.666483463e-07
3.666657028e-07
3.666831986e-07
3.66700707e-07
3.667180709e-07
3.667350964e-07
3.667515455e-07
3.667671262e-07
3.667814821e-07
3.667941792e-07
3.668046907e-07
3.668123793e-07
3.668164767e-07
)
;

boundaryField
{
    inlet
    {
        type            calculated;
        value           uniform 2.675807852e-13;
    }
    outlet
    {
        type            calculated;
        value           uniform 3.668164767e-07;
    }
    upperWall
    {
        type            empty;
    }
    lowerWall
    {
        type            empty;
    }
    frontAndBack
    {
        type            empty;
    }
}


// ************************************************************************* //
