/*--------------------------------*- C++ -*----------------------------------*\
  =========                 |
  \\      /  F ield         | OpenFOAM: The Open Source CFD Toolbox
   \\    /   O peration     | Website:  https://openfoam.org
    \\  /    A nd           | Version:  9
     \\/     M anipulation  |
\*---------------------------------------------------------------------------*/
FoamFile
{
    format      ascii;
    class       volScalarField;
    location    "0.019";
    object      O;
}
// * * * * * * * * * * * * * * * * * * * * * * * * * * * * * * * * * * * * * //

dimensions      [0 0 0 0 0 0 0];

internalField   nonuniform List<scalar> 
1000
(
4.615556932e-12
4.615556932e-12
4.615556932e-12
4.615556932e-12
4.615556932e-12
4.615556932e-12
4.615556932e-12
4.615556932e-12
4.615556932e-12
4.615556932e-12
4.615556932e-12
4.615556932e-12
4.615556932e-12
4.615556932e-12
4.615556932e-12
4.615556932e-12
4.615556932e-12
4.615556932e-12
4.615556932e-12
4.615556932e-12
4.615556932e-12
4.615556932e-12
4.615556932e-12
4.615556932e-12
4.615556932e-12
4.615556932e-12
4.615556932e-12
4.615556932e-12
4.615556932e-12
4.615556932e-12
4.615556932e-12
4.615556932e-12
4.615556932e-12
4.615556932e-12
4.615556932e-12
4.615556932e-12
4.615556932e-12
4.615556932e-12
4.615556932e-12
4.615556932e-12
4.615556932e-12
4.615556932e-12
4.615556932e-12
4.615556932e-12
4.615556932e-12
4.615556932e-12
4.615556932e-12
4.615556932e-12
4.615556932e-12
4.615556932e-12
4.615556932e-12
4.615556932e-12
4.615556932e-12
4.615556932e-12
4.615556932e-12
4.615556932e-12
4.615556932e-12
4.615556932e-12
4.615556932e-12
4.615556932e-12
4.615556932e-12
4.615556932e-12
4.615556932e-12
4.615556932e-12
4.615556932e-12
4.615556932e-12
4.615556932e-12
4.615556932e-12
4.615556932e-12
4.615556932e-12
4.615556932e-12
4.615556932e-12
4.615556932e-12
4.615556932e-12
4.615556932e-12
4.615556932e-12
4.615556932e-12
4.615556932e-12
4.615556932e-12
4.615556932e-12
4.615556932e-12
4.615556932e-12
4.615556932e-12
4.615556932e-12
4.615556932e-12
4.615556932e-12
4.615556932e-12
4.615556932e-12
4.615556932e-12
4.615556932e-12
4.615556932e-12
4.615556932e-12
4.615556932e-12
4.615556932e-12
4.615556932e-12
4.615556932e-12
4.615556932e-12
4.615556932e-12
4.615556932e-12
4.615556932e-12
4.615556932e-12
4.615556932e-12
4.615556932e-12
4.615556932e-12
4.615556932e-12
4.615556932e-12
4.615556932e-12
4.615556932e-12
4.615556932e-12
4.615556932e-12
4.615556932e-12
4.615556932e-12
4.615556932e-12
4.615556932e-12
4.615556932e-12
4.615556932e-12
4.615556932e-12
4.615556932e-12
4.615556932e-12
4.615556932e-12
4.615556932e-12
4.615556932e-12
4.615556932e-12
4.615556932e-12
4.615556932e-12
4.615556932e-12
4.615556932e-12
4.615556932e-12
4.615556932e-12
4.615556932e-12
4.615556932e-12
4.615556932e-12
4.615556932e-12
4.615556932e-12
4.615556932e-12
4.615556932e-12
4.615556932e-12
4.615556932e-12
4.615556932e-12
4.615556932e-12
4.615556932e-12
4.615556932e-12
4.615556932e-12
4.615556932e-12
4.615556932e-12
4.615556932e-12
4.615556932e-12
4.615556932e-12
4.615556932e-12
4.615556932e-12
4.615556932e-12
4.615556932e-12
4.615556932e-12
4.615556932e-12
4.615556932e-12
4.615556932e-12
4.615556932e-12
4.615556932e-12
4.615556932e-12
4.615556932e-12
4.615556932e-12
4.615556932e-12
4.615556932e-12
4.615556932e-12
4.615556932e-12
4.615556932e-12
4.615556932e-12
4.615556932e-12
4.615556932e-12
4.615556932e-12
4.615556932e-12
4.615556932e-12
4.615556932e-12
4.615556932e-12
4.615556932e-12
4.615556932e-12
4.615556932e-12
4.615556932e-12
4.615556932e-12
4.615556932e-12
4.615556932e-12
4.615556932e-12
4.615556932e-12
4.615556932e-12
4.615556932e-12
4.615556932e-12
4.615556932e-12
4.615556932e-12
4.615556932e-12
4.615556932e-12
4.615556932e-12
4.615556932e-12
4.615556932e-12
4.615556932e-12
4.615556932e-12
4.615556932e-12
4.615556932e-12
4.615556932e-12
4.615556932e-12
4.615556932e-12
4.615556932e-12
4.615556932e-12
4.615556932e-12
4.615556932e-12
4.615556932e-12
4.615556932e-12
4.615556932e-12
4.615556932e-12
4.615556932e-12
4.615556932e-12
4.615556932e-12
4.615556932e-12
4.615556932e-12
4.615556932e-12
4.615556932e-12
4.615556932e-12
4.615556932e-12
4.615556932e-12
4.615556932e-12
4.615556932e-12
4.615556932e-12
4.615556932e-12
4.615556932e-12
4.615556932e-12
4.615556932e-12
4.615556932e-12
4.615556932e-12
4.615556932e-12
4.615556932e-12
4.615556932e-12
4.615556932e-12
4.615556932e-12
4.615556932e-12
4.615556932e-12
4.615556932e-12
4.615556932e-12
4.615556932e-12
4.615556932e-12
4.615556932e-12
4.615556932e-12
4.615556932e-12
4.615556932e-12
4.615556932e-12
4.615556932e-12
4.615556932e-12
4.615556932e-12
4.615556932e-12
4.615556932e-12
4.615556932e-12
4.615556932e-12
4.615556932e-12
4.615556932e-12
4.615556932e-12
4.615556932e-12
4.615556932e-12
4.615556932e-12
4.615556932e-12
4.615556932e-12
4.615556932e-12
4.615556932e-12
4.615556932e-12
4.615556932e-12
4.615556932e-12
4.615556932e-12
4.615556932e-12
4.615556932e-12
4.615556932e-12
4.615556932e-12
4.615556932e-12
4.615556932e-12
4.615556932e-12
4.615556932e-12
4.615556932e-12
4.615556932e-12
4.615556932e-12
4.615556932e-12
4.615556932e-12
4.615556932e-12
4.615556932e-12
4.615556932e-12
4.615556932e-12
4.615556932e-12
4.615556932e-12
4.615556932e-12
4.615556932e-12
4.615556932e-12
4.615556932e-12
4.615556932e-12
4.615556932e-12
4.615556932e-12
4.615556932e-12
4.615556932e-12
4.615556932e-12
4.615556932e-12
4.615556932e-12
4.615556932e-12
4.615556932e-12
4.615556932e-12
4.615556932e-12
4.615556932e-12
4.615556932e-12
4.615556932e-12
4.615556932e-12
4.615556932e-12
4.615556932e-12
4.615556932e-12
4.615556932e-12
4.615556932e-12
4.615556932e-12
4.615556932e-12
4.615556932e-12
4.615556932e-12
4.615556932e-12
4.615556932e-12
4.615556932e-12
4.615556932e-12
4.615556932e-12
4.615556932e-12
4.615556932e-12
4.615556932e-12
4.615556932e-12
4.615556932e-12
4.615556932e-12
4.615556932e-12
4.615556932e-12
4.615556932e-12
4.615556932e-12
4.615556932e-12
4.615556932e-12
4.615556932e-12
4.615556932e-12
4.615556932e-12
4.615556932e-12
4.615556932e-12
4.615556932e-12
4.615556932e-12
4.615556932e-12
4.615556932e-12
4.615556932e-12
4.615556932e-12
4.615556932e-12
4.615556932e-12
4.615556932e-12
4.615556932e-12
4.615556932e-12
4.615556932e-12
4.615556932e-12
4.615556932e-12
4.615556932e-12
4.615556932e-12
4.615556932e-12
4.615556932e-12
4.615556932e-12
4.615556932e-12
4.615556932e-12
4.615556932e-12
4.615556932e-12
4.615556932e-12
4.615556932e-12
4.615556932e-12
4.615556932e-12
4.615556932e-12
4.615556932e-12
4.615556932e-12
4.615556932e-12
4.615556932e-12
4.615556932e-12
4.615556932e-12
4.615556932e-12
4.615556932e-12
4.615556932e-12
4.615556932e-12
4.615556932e-12
4.615556932e-12
4.615556932e-12
4.615556932e-12
4.615556932e-12
4.615556932e-12
4.615556932e-12
4.615556932e-12
4.615556932e-12
4.615556932e-12
4.615556932e-12
4.615556932e-12
4.615556932e-12
4.615556932e-12
4.615556932e-12
4.615556932e-12
4.615556931e-12
4.615556931e-12
4.615556931e-12
4.615556931e-12
4.61555693e-12
4.61555693e-12
4.615556929e-12
4.615556928e-12
4.615556927e-12
4.615556925e-12
4.615556922e-12
4.615556919e-12
4.615556914e-12
4.615556907e-12
4.615556898e-12
4.615556887e-12
4.61555687e-12
4.615556848e-12
4.615556819e-12
4.615556778e-12
4.615556724e-12
4.61555665e-12
4.615556549e-12
4.615556413e-12
4.615556228e-12
4.615555978e-12
4.615555639e-12
4.615555178e-12
4.615554555e-12
4.615553709e-12
4.615552563e-12
4.615551009e-12
4.615548903e-12
4.615546047e-12
4.615542177e-12
4.61553693e-12
4.615529818e-12
4.615520178e-12
4.615507111e-12
4.615489399e-12
4.615465391e-12
4.61543285e-12
4.615388743e-12
4.615328959e-12
4.615247928e-12
4.6151381e-12
4.614989243e-12
4.614787494e-12
4.614514069e-12
4.614143534e-12
4.613641467e-12
4.612961345e-12
4.612040444e-12
4.610794575e-12
4.609111698e-12
4.606845133e-12
4.603809025e-12
4.59978389e-12
4.594553331e-12
4.588026813e-12
4.580588293e-12
4.574023219e-12
4.573906983e-12
4.595657543e-12
4.679728227e-12
4.929510172e-12
5.605451525e-12
7.357768085e-12
1.179910024e-11
2.29053985e-11
5.041592893e-11
1.182679935e-10
2.839245839e-10
6.647841931e-10
1.52469612e-09
3.434167704e-09
7.625697947e-09
1.649688776e-08
3.47212999e-08
6.952812598e-08
1.302963707e-07
2.243908906e-07
3.667880893e-07
8.587249103e-07
2.543854883e-06
9.859726086e-06
4.312960322e-05
0.0001415606659
0.0003694652298
0.0007700934539
0.001277821947
0.001740926706
0.002048179624
0.002180271925
0.002176637208
0.002077436914
0.001926524649
0.001756906596
0.001589782162
0.001434021737
0.001292531118
0.001165767175
0.001053017133
0.0009531178589
0.0008648386903
0.0007867170094
0.0007176199449
0.0006562950553
0.0006019135904
0.0005534291027
0.0005101145792
0.000471415541
0.0004367023376
0.0004054775227
0.0003773304631
0.0003519014856
0.0003288750877
0.0003079747776
0.0002889583098
0.0002716135789
0.0002557723453
0.0002413068913
0.0002280234712
0.0002157925547
0.0002045123452
0.0001941589989
0.0001845540259
0.000175635528
0.0001674134768
0.0001597242958
0.0001525915283
0.0001459300938
0.0001396986909
0.0001338883016
0.0001284204184
0.0001233164547
0.0001184988613
0.0001139833994
0.0001097239754
0.0001057008485
0.0001019244524
9.831410952e-05
9.495591974e-05
9.174018717e-05
8.869905068e-05
8.583065364e-05
8.307856821e-05
8.049269631e-05
7.803060721e-05
7.566436647e-05
7.344296132e-05
7.132304252e-05
6.928281913e-05
6.735381438e-05
6.552174314e-05
6.375600903e-05
6.205859269e-05
6.047006069e-05
5.893689893e-05
5.745666219e-05
5.604082276e-05
5.4706809e-05
5.341702706e-05
5.216953297e-05
5.096656056e-05
4.983986571e-05
4.874869144e-05
4.769126556e-05
4.66660654e-05
4.568799543e-05
4.47586759e-05
4.385631144e-05
4.297980525e-05
4.212802672e-05
4.130843836e-05
4.053326814e-05
3.977882489e-05
3.904431105e-05
3.832891062e-05
3.763177958e-05
3.69657788e-05
3.632963767e-05
3.570889404e-05
3.510301894e-05
3.451147394e-05
3.393370461e-05
3.336982751e-05
3.284092278e-05
3.23237065e-05
3.181784481e-05
3.132299972e-05
3.083882405e-05
3.036495645e-05
2.990101369e-05
2.946172712e-05
2.903601047e-05
2.86189152e-05
2.821023791e-05
2.780976964e-05
2.74172905e-05
2.703256751e-05
2.665534743e-05
2.629460784e-05
2.594784381e-05
2.560765003e-05
2.527389876e-05
2.494645789e-05
2.462518684e-05
2.430993638e-05
2.400054379e-05
2.36968316e-05
2.340179714e-05
2.312299406e-05
2.284913088e-05
2.258012055e-05
2.231587185e-05
2.205629036e-05
2.180127592e-05
2.155072304e-05
2.130451787e-05
2.106253753e-05
2.082464632e-05
2.059615708e-05
2.037774622e-05
2.01628932e-05
1.995153591e-05
1.974361184e-05
1.953905694e-05
1.933780591e-05
1.913979096e-05
1.894494167e-05
1.87531834e-05
1.856443643e-05
1.837861374e-05
1.819561928e-05
1.802396036e-05
1.785583798e-05
1.769020793e-05
1.752703649e-05
1.736629015e-05
1.720793556e-05
1.705193908e-05
1.689826662e-05
1.674688301e-05
1.659775164e-05
1.645083367e-05
1.630608719e-05
1.616346616e-05
1.602291899e-05
1.588443702e-05
1.57555287e-05
1.56284369e-05
1.55031447e-05
1.537963518e-05
1.525789092e-05
1.513789429e-05
1.501962692e-05
1.490306995e-05
1.478820335e-05
1.467500616e-05
1.456345569e-05
1.445352761e-05
1.43451948e-05
1.423842724e-05
1.413319039e-05
1.402944461e-05
1.392714254e-05
1.382622761e-05
1.373152457e-05
1.363916141e-05
1.354809885e-05
1.345832055e-05
1.336980953e-05
1.328254906e-05
1.319652166e-05
1.311171015e-05
1.302809666e-05
1.294566367e-05
1.286439287e-05
1.278426622e-05
1.270526496e-05
1.262737053e-05
1.255056342e-05
1.247482417e-05
1.24001322e-05
1.23264667e-05
1.225380524e-05
1.218212458e-05
1.211139923e-05
1.204160191e-05
1.197270172e-05
1.190637789e-05
1.184339918e-05
1.178118738e-05
1.171972747e-05
1.165900491e-05
1.15990046e-05
1.153971191e-05
1.148111159e-05
1.142318884e-05
1.13659283e-05
1.130931505e-05
1.125333356e-05
1.119796872e-05
1.114320487e-05
1.108902677e-05
1.103541857e-05
1.098236479e-05
1.092984945e-05
1.087785686e-05
1.082637079e-05
1.077537524e-05
1.072485367e-05
1.067478974e-05
1.062516642e-05
1.057596671e-05
1.052717288e-05
1.047876698e-05
1.043073003e-05
1.038304244e-05
1.033568316e-05
1.028862987e-05
1.024185793e-05
1.019831866e-05
1.015509885e-05
1.011208937e-05
1.006927712e-05
1.002664874e-05
9.984188344e-06
9.941918336e-06
9.899759217e-06
9.857734723e-06
9.815839089e-06
9.77406186e-06
9.732392888e-06
9.690822401e-06
9.649341011e-06
9.607939692e-06
9.566609887e-06
9.525343387e-06
9.484132481e-06
9.44296977e-06
9.401848426e-06
9.360761901e-06
9.319704215e-06
9.278669599e-06
9.237652916e-06
9.196649169e-06
9.15565394e-06
9.114662838e-06
9.073672063e-06
9.032677714e-06
8.991676331e-06
8.950664141e-06
8.90963772e-06
8.868593055e-06
8.827526147e-06
8.786431982e-06
8.7453052e-06
8.705248135e-06
8.666937958e-06
8.62859279e-06
8.590217494e-06
8.551817197e-06
8.513398491e-06
8.474967792e-06
8.436525335e-06
8.398070361e-06
8.359667022e-06
8.321282253e-06
8.282924744e-06
8.244603313e-06
8.206327836e-06
8.168108032e-06
8.129954654e-06
8.091878233e-06
8.053890199e-06
8.016001689e-06
7.978224788e-06
7.940571239e-06
7.903053585e-06
7.865683946e-06
7.828475257e-06
7.791439966e-06
7.754591153e-06
7.717941307e-06
7.681503522e-06
7.645290195e-06
7.609314099e-06
7.573587158e-06
7.538121564e-06
7.502928485e-06
7.468019039e-06
7.433403071e-06
7.399090136e-06
7.365088228e-06
7.334200052e-06
7.303665758e-06
7.273452292e-06
7.243573271e-06
7.214042513e-06
7.184873208e-06
7.156078713e-06
7.127671738e-06
7.099665033e-06
7.072070679e-06
7.044900757e-06
7.018166669e-06
6.991879703e-06
6.966050462e-06
6.940689382e-06
6.915806214e-06
6.891410444e-06
6.867510878e-06
6.844115996e-06
6.821233605e-06
6.798871107e-06
6.777035247e-06
6.755732297e-06
6.734967889e-06
6.714747122e-06
6.69507448e-06
6.675953843e-06
6.657388501e-06
6.639381099e-06
6.621933729e-06
6.605047765e-06
6.588724058e-06
6.572962721e-06
6.557763394e-06
6.543124901e-06
6.529045629e-06
6.515523153e-06
6.502554666e-06
6.490136473e-06
6.478264538e-06
6.466933959e-06
6.45613956e-06
6.44587522e-06
6.436134584e-06
6.426910403e-06
6.41819526e-06
6.409980766e-06
6.402258414e-06
6.395018784e-06
6.388252412e-06
6.381948845e-06
6.376097631e-06
6.370687415e-06
6.36570691e-06
6.361143854e-06
6.356986101e-06
6.353220623e-06
6.349834579e-06
6.346814177e-06
6.344145854e-06
6.341815203e-06
6.339808115e-06
6.338109571e-06
6.336704887e-06
6.335578586e-06
6.334715591e-06
6.334099967e-06
6.333716212e-06
6.333548092e-06
6.333579862e-06
6.333794987e-06
6.334177449e-06
6.334710565e-06
6.335378222e-06
6.336163589e-06
6.337050422e-06
6.338021893e-06
6.339061802e-06
6.340153317e-06
6.341280252e-06
6.342425916e-06
6.343574299e-06
6.344708847e-06
6.345813696e-06
6.346872573e-06
6.347869914e-06
6.348789724e-06
6.349616726e-06
6.350335337e-06
6.350930717e-06
6.351387712e-06
6.351691917e-06
6.35182874e-06
6.351784363e-06
6.351544787e-06
6.351096798e-06
6.350427146e-06
6.349523442e-06
6.348373409e-06
6.34696597e-06
6.34529135e-06
6.343344169e-06
6.341070954e-06
6.338566883e-06
6.335677305e-06
6.33246854e-06
6.328869751e-06
6.324905207e-06
6.320622326e-06
6.316009442e-06
6.311065546e-06
6.305791533e-06
6.30019029e-06
6.294267436e-06
6.288031461e-06
6.281494533e-06
6.274672846e-06
6.267587626e-06
6.260265916e-06
6.252741988e-06
6.245058832e-06
6.23727047e-06
6.229445207e-06
6.221669882e-06
6.214056508e-06
6.206750795e-06
6.199945472e-06
6.19389634e-06
6.188945843e-06
6.187542069e-06
6.187448758e-06
6.187354536e-06
6.187259568e-06
6.187164025e-06
6.187068089e-06
6.186971946e-06
6.18687576e-06
6.186779789e-06
6.186684112e-06
6.186588977e-06
6.186494585e-06
6.186401132e-06
6.186308819e-06
6.186217843e-06
6.186128406e-06
6.18604071e-06
6.185954959e-06
6.185871358e-06
6.185790111e-06
6.185711427e-06
6.185635513e-06
6.185562578e-06
6.185492833e-06
6.185426489e-06
6.185363757e-06
6.185304851e-06
6.185249986e-06
6.185199374e-06
6.185153233e-06
6.185111778e-06
6.185075227e-06
6.185043797e-06
6.185017707e-06
6.184997176e-06
6.184982428e-06
6.184973698e-06
6.184971288e-06
6.184974935e-06
6.184985755e-06
6.185003684e-06
6.185028741e-06
6.185061153e-06
6.185101149e-06
6.185148954e-06
6.185204792e-06
6.18526889e-06
6.185341472e-06
6.185422763e-06
6.185512986e-06
6.185612364e-06
6.185721117e-06
6.185839462e-06
6.185967617e-06
6.186105789e-06
6.186254187e-06
6.186413008e-06
6.186582443e-06
6.186762671e-06
6.186953861e-06
6.187156162e-06
6.187369706e-06
6.187594598e-06
6.187830914e-06
6.18807869e-06
6.188337919e-06
6.188608535e-06
6.188890405e-06
6.189183309e-06
6.189486924e-06
6.189800799e-06
6.190124331e-06
6.190456726e-06
6.190796959e-06
6.191143725e-06
6.191495378e-06
6.191849854e-06
6.192204585e-06
6.192556387e-06
6.192901335e-06
6.193234603e-06
6.193550277e-06
6.193841137e-06
6.194098388e-06
6.194311357e-06
6.194467132e-06
6.194550148e-06
)
;

boundaryField
{
    inlet
    {
        type            calculated;
        value           uniform 4.615556932e-12;
    }
    outlet
    {
        type            calculated;
        value           uniform 6.194550148e-06;
    }
    upperWall
    {
        type            empty;
    }
    lowerWall
    {
        type            empty;
    }
    frontAndBack
    {
        type            empty;
    }
}


// ************************************************************************* //
