/*--------------------------------*- C++ -*----------------------------------*\
  =========                 |
  \\      /  F ield         | OpenFOAM: The Open Source CFD Toolbox
   \\    /   O peration     | Website:  https://openfoam.org
    \\  /    A nd           | Version:  9
     \\/     M anipulation  |
\*---------------------------------------------------------------------------*/
FoamFile
{
    format      ascii;
    class       volScalarField;
    location    "0.019";
    object      O2;
}
// * * * * * * * * * * * * * * * * * * * * * * * * * * * * * * * * * * * * * //

dimensions      [0 0 0 0 0 0 0];

internalField   nonuniform List<scalar> 
1000
(
0.2295408849
0.2295408849
0.2295408849
0.2295408849
0.2295408849
0.2295408849
0.2295408849
0.2295408849
0.2295408849
0.2295408849
0.2295408849
0.2295408849
0.2295408849
0.2295408849
0.2295408849
0.2295408849
0.2295408849
0.2295408849
0.2295408849
0.2295408849
0.2295408849
0.2295408849
0.2295408849
0.2295408849
0.2295408849
0.2295408849
0.2295408849
0.2295408849
0.2295408849
0.2295408849
0.2295408849
0.2295408849
0.2295408849
0.2295408849
0.2295408849
0.2295408849
0.2295408849
0.2295408849
0.2295408849
0.2295408849
0.2295408849
0.2295408849
0.2295408849
0.2295408849
0.2295408849
0.2295408849
0.2295408849
0.2295408849
0.2295408849
0.2295408849
0.2295408849
0.2295408849
0.2295408849
0.2295408849
0.2295408849
0.2295408849
0.2295408849
0.2295408849
0.2295408849
0.2295408849
0.2295408849
0.2295408849
0.2295408849
0.2295408849
0.2295408849
0.2295408849
0.2295408849
0.2295408849
0.2295408849
0.2295408849
0.2295408849
0.2295408849
0.2295408849
0.2295408849
0.2295408849
0.2295408849
0.2295408849
0.2295408849
0.2295408849
0.2295408849
0.2295408849
0.2295408849
0.2295408849
0.2295408849
0.2295408849
0.2295408849
0.2295408849
0.2295408849
0.2295408849
0.2295408849
0.2295408849
0.2295408849
0.2295408849
0.2295408849
0.2295408849
0.2295408849
0.2295408849
0.2295408849
0.2295408849
0.2295408849
0.2295408849
0.2295408849
0.2295408849
0.2295408849
0.2295408849
0.2295408849
0.2295408849
0.2295408849
0.2295408849
0.2295408849
0.2295408849
0.2295408849
0.2295408849
0.2295408849
0.2295408849
0.2295408849
0.2295408849
0.2295408849
0.2295408849
0.2295408849
0.2295408849
0.2295408849
0.2295408849
0.2295408849
0.2295408849
0.2295408849
0.2295408849
0.2295408849
0.2295408849
0.2295408849
0.2295408849
0.2295408849
0.2295408849
0.2295408849
0.2295408849
0.2295408849
0.2295408849
0.2295408849
0.2295408849
0.2295408849
0.2295408849
0.2295408849
0.2295408849
0.2295408849
0.2295408849
0.2295408849
0.2295408849
0.2295408849
0.2295408849
0.2295408849
0.2295408849
0.2295408849
0.2295408849
0.2295408849
0.2295408849
0.2295408849
0.2295408849
0.2295408849
0.2295408849
0.2295408849
0.2295408849
0.2295408849
0.2295408849
0.2295408849
0.2295408849
0.2295408849
0.2295408849
0.2295408849
0.2295408849
0.2295408849
0.2295408849
0.2295408849
0.2295408849
0.2295408849
0.2295408849
0.2295408849
0.2295408849
0.2295408849
0.2295408849
0.2295408849
0.2295408849
0.2295408849
0.2295408849
0.2295408849
0.2295408849
0.2295408849
0.2295408849
0.2295408849
0.2295408849
0.2295408849
0.2295408849
0.2295408849
0.2295408849
0.2295408849
0.2295408849
0.2295408849
0.2295408849
0.2295408849
0.2295408849
0.2295408849
0.2295408849
0.2295408849
0.2295408849
0.2295408849
0.2295408849
0.2295408849
0.2295408849
0.2295408849
0.2295408849
0.2295408849
0.2295408849
0.2295408849
0.2295408849
0.2295408849
0.2295408849
0.2295408849
0.2295408849
0.2295408849
0.2295408849
0.2295408849
0.2295408849
0.2295408849
0.2295408849
0.2295408849
0.2295408849
0.2295408849
0.2295408849
0.2295408849
0.2295408849
0.2295408849
0.2295408849
0.2295408849
0.2295408849
0.2295408849
0.2295408849
0.2295408849
0.2295408849
0.2295408849
0.2295408849
0.2295408849
0.2295408849
0.2295408849
0.2295408849
0.2295408849
0.2295408849
0.2295408849
0.2295408849
0.2295408849
0.2295408849
0.2295408849
0.2295408849
0.2295408849
0.2295408849
0.2295408849
0.2295408849
0.2295408849
0.2295408849
0.2295408849
0.2295408849
0.2295408849
0.2295408849
0.2295408849
0.2295408849
0.2295408849
0.2295408849
0.2295408849
0.2295408849
0.2295408849
0.2295408849
0.2295408849
0.2295408849
0.2295408849
0.2295408849
0.2295408849
0.2295408849
0.2295408849
0.2295408849
0.2295408849
0.2295408849
0.2295408849
0.2295408849
0.2295408849
0.2295408849
0.2295408849
0.2295408849
0.2295408849
0.2295408849
0.2295408849
0.2295408849
0.2295408849
0.2295408849
0.2295408849
0.2295408849
0.2295408849
0.2295408849
0.2295408849
0.2295408849
0.2295408849
0.2295408849
0.2295408849
0.2295408849
0.2295408849
0.2295408849
0.2295408849
0.2295408849
0.2295408849
0.2295408849
0.2295408849
0.2295408849
0.2295408849
0.2295408849
0.2295408849
0.2295408849
0.2295408849
0.2295408849
0.2295408849
0.2295408849
0.2295408849
0.2295408849
0.2295408849
0.2295408849
0.2295408849
0.2295408849
0.2295408849
0.2295408849
0.2295408849
0.2295408849
0.2295408849
0.2295408849
0.2295408849
0.2295408849
0.2295408849
0.2295408849
0.2295408849
0.2295408849
0.2295408849
0.2295408849
0.2295408849
0.2295408849
0.2295408849
0.2295408849
0.2295408849
0.2295408849
0.2295408849
0.2295408849
0.2295408849
0.2295408849
0.2295408849
0.2295408849
0.2295408849
0.2295408849
0.2295408849
0.2295408849
0.2295408849
0.2295408849
0.2295408849
0.2295408849
0.2295408849
0.2295408849
0.2295408849
0.2295408849
0.2295408849
0.2295408849
0.2295408849
0.2295408849
0.2295408849
0.2295408849
0.2295408849
0.2295408849
0.2295408849
0.2295408849
0.2295408849
0.2295408849
0.2295408849
0.2295408849
0.2295408849
0.2295408849
0.2295408849
0.2295408849
0.2295408849
0.2295408849
0.2295408849
0.2295408849
0.2295408849
0.2295408849
0.2295408849
0.2295408849
0.2295408849
0.2295408849
0.2295408849
0.2295408849
0.2295408849
0.2295408849
0.2295408849
0.2295408849
0.2295408849
0.2295408849
0.2295408849
0.2295408849
0.2295408849
0.2295408849
0.2295408849
0.2295408849
0.2295408849
0.2295408849
0.2295408849
0.2295408849
0.2295408849
0.2295408849
0.2295408849
0.2295408849
0.2295408849
0.2295408849
0.2295408849
0.2295408849
0.2295408849
0.2295408849
0.2295408849
0.229540885
0.229540885
0.2295408851
0.2295408851
0.2295408852
0.2295408854
0.2295408856
0.2295408858
0.2295408862
0.2295408866
0.2295408873
0.2295408881
0.2295408893
0.2295408908
0.229540893
0.2295408958
0.2295408997
0.229540905
0.2295409122
0.2295409219
0.2295409351
0.229540953
0.2295409772
0.22954101
0.2295410544
0.2295411147
0.2295411964
0.2295413071
0.2295414571
0.2295416604
0.229541936
0.2295423095
0.2295428157
0.2295435017
0.2295444313
0.229545691
0.2295473978
0.2295497101
0.229552842
0.2295570825
0.2295628195
0.2295705714
0.2295810209
0.2295950592
0.2296138001
0.2296385348
0.2296704942
0.2297101195
0.2297550601
0.2297951663
0.2298002693
0.22969237
0.2292889039
0.2281764845
0.2253576968
0.2197300769
0.2105876188
0.1985555793
0.1846900759
0.1698896701
0.1554802528
0.1430828466
0.1336134567
0.1270045483
0.1226383783
0.1198408938
0.1180613222
0.1169156942
0.1161600024
0.1156479583
0.1152932913
0.1150430433
0.1148639989
0.1147346321
0.1146413724
0.1145735857
0.1145253557
0.1144911483
0.1144681185
0.1144531519
0.1144444113
0.114440577
0.1144403245
0.1144427316
0.114447112
0.1144529222
0.1144597364
0.1144672219
0.1144751173
0.1144832207
0.114491414
0.1144996536
0.114507768
0.114515699
0.1145234316
0.1145310843
0.114538487
0.1145456691
0.1145527811
0.1145596556
0.1145664445
0.1145730992
0.1145796385
0.1145861281
0.1145925058
0.114598873
0.1146051535
0.1146114223
0.1146176436
0.114623819
0.114629997
0.1146360666
0.1146421944
0.1146482134
0.1146541897
0.114660132
0.1146659547
0.1146717473
0.1146774459
0.114683008
0.1146885182
0.1146938996
0.1146991276
0.1147042595
0.1147092751
0.1147141281
0.1147188257
0.1147234398
0.1147278889
0.1147321743
0.1147363209
0.1147403638
0.1147442507
0.1147479861
0.1147515793
0.114755091
0.1147584646
0.1147617083
0.1147648285
0.1147678575
0.1147708068
0.1147736508
0.1147763956
0.1147790473
0.1147816259
0.1147841585
0.1147866145
0.1147889986
0.1147913157
0.1147935702
0.1147957872
0.1147979699
0.1148001004
0.1148021815
0.1148042155
0.1148062048
0.1148081525
0.1148100931
0.1148119935
0.1148138547
0.1148156773
0.114817462
0.1148192092
0.1148209196
0.1148226166
0.114824284
0.1148259147
0.1148275085
0.1148290651
0.1148305847
0.1148320672
0.1148335128
0.1148349356
0.1148363325
0.1148376925
0.1148390157
0.1148403021
0.114841552
0.1148427657
0.1148439437
0.1148450865
0.1148461994
0.1148472938
0.114848355
0.1148493833
0.1148503794
0.1148513439
0.1148522776
0.1148531812
0.1148540555
0.1148549015
0.1148557201
0.1148565197
0.1148573024
0.1148580602
0.1148587938
0.1148595039
0.1148601911
0.1148608563
0.1148614999
0.1148621228
0.1148627256
0.114863309
0.1148638737
0.1148644206
0.1148649617
0.1148654873
0.1148659967
0.1148664902
0.1148669682
0.1148674311
0.1148678793
0.1148683132
0.1148687331
0.1148691394
0.1148695325
0.1148699129
0.1148702808
0.1148706369
0.1148709815
0.1148713252
0.1148716581
0.1148719807
0.1148722933
0.114872596
0.1148728892
0.1148731732
0.1148734484
0.114873715
0.1148739734
0.114874224
0.1148744671
0.1148747031
0.1148749324
0.1148751556
0.114875373
0.1148755854
0.1148757934
0.1148760031
0.1148762096
0.1148764115
0.1148766093
0.1148768032
0.1148769937
0.1148771809
0.1148773652
0.1148775468
0.1148777262
0.1148779036
0.1148780792
0.1148782533
0.1148784263
0.1148785983
0.1148787697
0.1148789407
0.1148791116
0.1148792826
0.114879454
0.114879626
0.1148797989
0.114879973
0.1148801508
0.1148803334
0.1148805178
0.1148807043
0.114880893
0.114881084
0.1148812774
0.1148814735
0.1148816723
0.1148818739
0.1148820785
0.1148822862
0.1148824971
0.1148827112
0.1148829288
0.1148831497
0.1148833743
0.1148836024
0.1148838342
0.1148840697
0.1148843091
0.1148845522
0.1148847993
0.1148850502
0.1148853052
0.1148855641
0.114885827
0.1148860939
0.1148863649
0.1148866399
0.114886919
0.1148872023
0.1148874933
0.1148877885
0.1148880878
0.114888391
0.1148886981
0.1148890092
0.1148893234
0.1148896419
0.1148899638
0.1148902891
0.1148906176
0.114890949
0.1148912833
0.1148916203
0.1148919598
0.1148923016
0.1148926455
0.1148929913
0.1148933388
0.1148936877
0.1148940379
0.1148943891
0.114894741
0.1148950934
0.1148954461
0.1148957987
0.1148961511
0.1148965028
0.1148968537
0.1148972035
0.1148975519
0.1148978986
0.1148982434
0.1148985859
0.1148989258
0.114899263
0.1148995985
0.1148999328
0.1149002634
0.11490059
0.1149009124
0.1149012301
0.1149015427
0.1149018502
0.1149021523
0.1149024475
0.1149027364
0.1149030187
0.1149032939
0.1149035617
0.1149038219
0.1149040741
0.1149043181
0.1149045534
0.1149047798
0.114904997
0.1149052047
0.1149054027
0.1149055906
0.1149057682
0.1149059353
0.1149060916
0.1149062368
0.1149063708
0.1149064934
0.1149066043
0.1149067033
0.1149067904
0.1149068653
0.114906928
0.1149069783
0.1149070161
0.1149070413
0.1149070546
0.1149070551
0.1149070429
0.1149070178
0.1149069798
0.1149069289
0.1149068649
0.114906788
0.1149066981
0.1149065952
0.1149064793
0.1149063506
0.114906209
0.1149060547
0.1149058878
0.1149057083
0.1149055165
0.1149053123
0.1149050962
0.1149048681
0.1149046283
0.114904377
0.1149041144
0.1149038408
0.1149035564
0.1149032615
0.1149029563
0.1149026412
0.1149023164
0.1149019823
0.1149016393
0.1149012876
0.1149009276
0.1149005597
0.1149001842
0.1148998016
0.1148994122
0.1148990164
0.1148986147
0.1148982074
0.1148977951
0.114897378
0.1148969568
0.1148965317
0.1148961033
0.114895672
0.1148952383
0.1148948026
0.1148943654
0.1148939271
0.1148934882
0.1148930493
0.1148926106
0.1148921728
0.1148917362
0.1148913013
0.1148908687
0.1148904386
0.1148900117
0.1148895882
0.1148891688
0.1148887537
0.1148883435
0.1148879385
0.1148875392
0.1148871459
0.1148867592
0.1148863793
0.1148860066
0.1148856415
0.1148852845
0.1148849357
0.1148845957
0.1148842646
0.1148839429
0.1148836308
0.1148833286
0.1148830367
0.1148827552
0.1148824845
0.1148822248
0.1148819763
0.1148817393
0.1148815139
0.1148813005
0.114881099
0.1148809097
0.1148807329
0.1148805685
0.1148804167
0.1148802777
0.1148801516
0.1148800383
0.1148799381
0.1148798508
0.1148797767
0.1148797157
0.1148796679
0.1148796331
0.1148796115
0.1148796028
0.1148796071
0.1148796251
0.1148796545
0.1148796983
0.1148797548
0.1148798246
0.114879907
0.1148800014
0.1148801078
0.1148802259
0.1148803555
0.1148804963
0.1148806479
0.1148808101
0.1148809823
0.1148811643
0.1148813555
0.1148815554
0.1148817632
0.1148819783
0.1148821998
0.1148824267
0.1148826579
0.1148828917
0.1148831265
0.1148833599
0.1148835888
0.1148838093
0.114884001
0.1148841833
0.1148843675
0.114884553
0.1148847397
0.1148849272
0.1148851151
0.114885303
0.1148854905
0.1148856775
0.1148858634
0.1148860478
0.1148862305
0.1148864108
0.1148865886
0.1148867634
0.1148869347
0.1148871023
0.1148872657
0.1148874244
0.1148875782
0.1148877265
0.114887869
0.1148880053
0.114888135
0.1148882575
0.1148883726
0.1148884798
0.1148885787
0.1148886689
0.1148887499
0.1148888213
0.1148888827
0.1148889337
0.1148889738
0.1148890027
0.1148890197
0.1148890244
0.1148890173
0.1148889962
0.1148889611
0.1148889122
0.1148888488
0.1148887707
0.1148886773
0.1148885682
0.1148884429
0.1148883011
0.1148881422
0.1148879659
0.1148877717
0.1148875592
0.114887328
0.1148870776
0.1148868076
0.1148865176
0.1148862073
0.1148858762
0.114885524
0.1148851504
0.1148847551
0.1148843378
0.1148838984
0.1148834366
0.1148829524
0.1148824459
0.1148819171
0.1148813663
0.114880794
0.1148802007
0.1148795874
0.1148789552
0.1148783056
0.1148776408
0.1148769632
0.1148762761
0.1148755834
0.1148748903
0.1148742028
0.1148735288
0.1148728775
0.1148722607
0.1148716924
0.1148711897
0.1148707735
0.1148704691
0.1148703069
)
;

boundaryField
{
    inlet
    {
        type            calculated;
        value           uniform 0.2295408849;
    }
    outlet
    {
        type            calculated;
        value           uniform 0.1148703069;
    }
    upperWall
    {
        type            empty;
    }
    lowerWall
    {
        type            empty;
    }
    frontAndBack
    {
        type            empty;
    }
}


// ************************************************************************* //
