/*--------------------------------*- C++ -*----------------------------------*\
  =========                 |
  \\      /  F ield         | OpenFOAM: The Open Source CFD Toolbox
   \\    /   O peration     | Website:  https://openfoam.org
    \\  /    A nd           | Version:  9
     \\/     M anipulation  |
\*---------------------------------------------------------------------------*/
FoamFile
{
    format      ascii;
    class       volScalarField;
    location    "0.019";
    object      OH;
}
// * * * * * * * * * * * * * * * * * * * * * * * * * * * * * * * * * * * * * //

dimensions      [0 0 0 0 0 0 0];

internalField   nonuniform List<scalar> 
1000
(
6.603740606e-13
6.603740606e-13
6.603740606e-13
6.603740606e-13
6.603740606e-13
6.603740606e-13
6.603740606e-13
6.603740606e-13
6.603740606e-13
6.603740606e-13
6.603740606e-13
6.603740606e-13
6.603740606e-13
6.603740606e-13
6.603740606e-13
6.603740606e-13
6.603740606e-13
6.603740606e-13
6.603740606e-13
6.603740606e-13
6.603740606e-13
6.603740606e-13
6.603740606e-13
6.603740606e-13
6.603740606e-13
6.603740606e-13
6.603740606e-13
6.603740606e-13
6.603740606e-13
6.603740606e-13
6.603740606e-13
6.603740606e-13
6.603740606e-13
6.603740606e-13
6.603740606e-13
6.603740606e-13
6.603740606e-13
6.603740606e-13
6.603740606e-13
6.603740606e-13
6.603740606e-13
6.603740606e-13
6.603740606e-13
6.603740606e-13
6.603740606e-13
6.603740606e-13
6.603740606e-13
6.603740606e-13
6.603740606e-13
6.603740606e-13
6.603740606e-13
6.603740606e-13
6.603740606e-13
6.603740606e-13
6.603740606e-13
6.603740606e-13
6.603740606e-13
6.603740606e-13
6.603740606e-13
6.603740606e-13
6.603740606e-13
6.603740606e-13
6.603740606e-13
6.603740606e-13
6.603740606e-13
6.603740606e-13
6.603740606e-13
6.603740606e-13
6.603740606e-13
6.603740606e-13
6.603740606e-13
6.603740606e-13
6.603740606e-13
6.603740606e-13
6.603740606e-13
6.603740606e-13
6.603740606e-13
6.603740606e-13
6.603740606e-13
6.603740606e-13
6.603740606e-13
6.603740606e-13
6.603740606e-13
6.603740606e-13
6.603740606e-13
6.603740606e-13
6.603740606e-13
6.603740606e-13
6.603740606e-13
6.603740606e-13
6.603740606e-13
6.603740606e-13
6.603740606e-13
6.603740606e-13
6.603740606e-13
6.603740606e-13
6.603740606e-13
6.603740606e-13
6.603740606e-13
6.603740606e-13
6.603740606e-13
6.603740606e-13
6.603740606e-13
6.603740606e-13
6.603740606e-13
6.603740606e-13
6.603740606e-13
6.603740606e-13
6.603740606e-13
6.603740606e-13
6.603740606e-13
6.603740606e-13
6.603740606e-13
6.603740606e-13
6.603740606e-13
6.603740606e-13
6.603740606e-13
6.603740606e-13
6.603740606e-13
6.603740606e-13
6.603740606e-13
6.603740606e-13
6.603740606e-13
6.603740606e-13
6.603740606e-13
6.603740606e-13
6.603740606e-13
6.603740606e-13
6.603740606e-13
6.603740606e-13
6.603740606e-13
6.603740606e-13
6.603740606e-13
6.603740606e-13
6.603740606e-13
6.603740606e-13
6.603740606e-13
6.603740606e-13
6.603740606e-13
6.603740606e-13
6.603740606e-13
6.603740606e-13
6.603740606e-13
6.603740606e-13
6.603740606e-13
6.603740606e-13
6.603740606e-13
6.603740606e-13
6.603740606e-13
6.603740606e-13
6.603740606e-13
6.603740606e-13
6.603740606e-13
6.603740606e-13
6.603740606e-13
6.603740606e-13
6.603740606e-13
6.603740606e-13
6.603740606e-13
6.603740606e-13
6.603740606e-13
6.603740606e-13
6.603740606e-13
6.603740606e-13
6.603740606e-13
6.603740606e-13
6.603740606e-13
6.603740606e-13
6.603740606e-13
6.603740606e-13
6.603740606e-13
6.603740606e-13
6.603740606e-13
6.603740606e-13
6.603740606e-13
6.603740606e-13
6.603740606e-13
6.603740606e-13
6.603740606e-13
6.603740606e-13
6.603740606e-13
6.603740606e-13
6.603740606e-13
6.603740606e-13
6.603740606e-13
6.603740606e-13
6.603740606e-13
6.603740606e-13
6.603740606e-13
6.603740606e-13
6.603740606e-13
6.603740606e-13
6.603740606e-13
6.603740606e-13
6.603740606e-13
6.603740606e-13
6.603740606e-13
6.603740606e-13
6.603740606e-13
6.603740606e-13
6.603740606e-13
6.603740606e-13
6.603740606e-13
6.603740606e-13
6.603740606e-13
6.603740606e-13
6.603740606e-13
6.603740606e-13
6.603740606e-13
6.603740606e-13
6.603740606e-13
6.603740606e-13
6.603740606e-13
6.603740606e-13
6.603740606e-13
6.603740606e-13
6.603740606e-13
6.603740606e-13
6.603740606e-13
6.603740606e-13
6.603740606e-13
6.603740606e-13
6.603740606e-13
6.603740606e-13
6.603740606e-13
6.603740606e-13
6.603740606e-13
6.603740606e-13
6.603740606e-13
6.603740606e-13
6.603740606e-13
6.603740606e-13
6.603740606e-13
6.603740606e-13
6.603740606e-13
6.603740606e-13
6.603740606e-13
6.603740606e-13
6.603740606e-13
6.603740606e-13
6.603740606e-13
6.603740606e-13
6.603740606e-13
6.603740606e-13
6.603740606e-13
6.603740606e-13
6.603740606e-13
6.603740606e-13
6.603740606e-13
6.603740606e-13
6.603740606e-13
6.603740606e-13
6.603740606e-13
6.603740606e-13
6.603740606e-13
6.603740606e-13
6.603740606e-13
6.603740606e-13
6.603740606e-13
6.603740606e-13
6.603740606e-13
6.603740606e-13
6.603740606e-13
6.603740606e-13
6.603740606e-13
6.603740606e-13
6.603740606e-13
6.603740606e-13
6.603740606e-13
6.603740606e-13
6.603740606e-13
6.603740606e-13
6.603740606e-13
6.603740606e-13
6.603740606e-13
6.603740606e-13
6.603740606e-13
6.603740606e-13
6.603740606e-13
6.603740606e-13
6.603740606e-13
6.603740606e-13
6.603740606e-13
6.603740606e-13
6.603740606e-13
6.603740606e-13
6.603740606e-13
6.603740606e-13
6.603740606e-13
6.603740606e-13
6.603740606e-13
6.603740606e-13
6.603740606e-13
6.603740606e-13
6.603740606e-13
6.603740606e-13
6.603740606e-13
6.603740606e-13
6.603740606e-13
6.603740606e-13
6.603740606e-13
6.603740606e-13
6.603740606e-13
6.603740606e-13
6.603740606e-13
6.603740606e-13
6.603740606e-13
6.603740606e-13
6.603740606e-13
6.603740606e-13
6.603740606e-13
6.603740606e-13
6.603740606e-13
6.603740606e-13
6.603740606e-13
6.603740606e-13
6.603740606e-13
6.603740606e-13
6.603740606e-13
6.603740606e-13
6.603740606e-13
6.603740606e-13
6.603740606e-13
6.603740606e-13
6.603740606e-13
6.603740606e-13
6.603740606e-13
6.603740606e-13
6.603740606e-13
6.603740606e-13
6.603740606e-13
6.603740606e-13
6.603740606e-13
6.603740606e-13
6.603740606e-13
6.603740606e-13
6.603740606e-13
6.603740606e-13
6.603740606e-13
6.603740606e-13
6.603740606e-13
6.603740606e-13
6.603740606e-13
6.603740606e-13
6.603740606e-13
6.603740606e-13
6.603740606e-13
6.603740606e-13
6.603740606e-13
6.603740606e-13
6.603740606e-13
6.603740606e-13
6.603740606e-13
6.603740606e-13
6.603740606e-13
6.603740606e-13
6.603740606e-13
6.603740606e-13
6.603740606e-13
6.603740606e-13
6.603740606e-13
6.603740606e-13
6.603740606e-13
6.603740606e-13
6.603740606e-13
6.603740606e-13
6.603740606e-13
6.603740606e-13
6.603740606e-13
6.603740606e-13
6.603740606e-13
6.603740606e-13
6.603740606e-13
6.603740606e-13
6.603740606e-13
6.603740606e-13
6.603740606e-13
6.603740606e-13
6.603740606e-13
6.603740606e-13
6.603740606e-13
6.603740606e-13
6.603740606e-13
6.603740606e-13
6.603740606e-13
6.603740607e-13
6.603740607e-13
6.603740607e-13
6.603740607e-13
6.603740608e-13
6.603740608e-13
6.603740609e-13
6.60374061e-13
6.603740611e-13
6.603740613e-13
6.603740615e-13
6.603740618e-13
6.603740622e-13
6.603740628e-13
6.603740636e-13
6.603740647e-13
6.603740661e-13
6.603740681e-13
6.603740708e-13
6.603740744e-13
6.603740793e-13
6.603740859e-13
6.603740949e-13
6.603741071e-13
6.603741236e-13
6.603741461e-13
6.603741765e-13
6.603742177e-13
6.603742736e-13
6.603743493e-13
6.60374452e-13
6.603745913e-13
6.6037478e-13
6.603750359e-13
6.603753827e-13
6.603758529e-13
6.603764902e-13
6.603773542e-13
6.603785253e-13
6.603801127e-13
6.603822645e-13
6.603851813e-13
6.603891348e-13
6.603944938e-13
6.604017576e-13
6.604116036e-13
6.6042495e-13
6.604430423e-13
6.60467571e-13
6.605008324e-13
6.605459531e-13
6.606072051e-13
6.606904657e-13
6.608039179e-13
6.609591973e-13
6.611734372e-13
6.614732717e-13
6.61903344e-13
6.625455533e-13
6.635644497e-13
6.653170577e-13
6.686224495e-13
6.754286146e-13
6.904684827e-13
7.25378378e-13
8.08941149e-13
1.012539193e-12
1.513298092e-12
2.750354293e-12
5.810312126e-12
1.33737571e-11
3.202518473e-11
7.784179403e-11
1.897496017e-10
4.623673812e-10
1.119986548e-09
2.606952928e-09
5.88424529e-09
1.290088678e-08
2.769739952e-08
5.687375214e-08
1.122201745e-07
2.058492957e-07
3.522725993e-07
6.035657969e-07
1.387318117e-06
5.293750097e-06
1.280736154e-05
4.115623065e-05
0.0001358865373
0.0002642792243
0.0004083785826
0.0006553931583
0.001058901465
0.001566460039
0.002074964237
0.002497997604
0.002801312981
0.002988947434
0.003072637042
0.003083998096
0.003047360662
0.002981920052
0.002899375501
0.002807558486
0.00271167281
0.00261507973
0.002519243538
0.002426492333
0.002336852851
0.002251430333
0.002169661212
0.002092221692
0.002018915171
0.001949344455
0.001883569895
0.001821448361
0.001762768637
0.001707330131
0.001654940355
0.001605416365
0.001558588969
0.001514298412
0.001472339631
0.001432464121
0.001394684799
0.001358885959
0.001324918774
0.001292451386
0.001261645379
0.001232361129
0.001204276413
0.001177604287
0.0011520412
0.001127621185
0.00110427267
0.00108184729
0.001060415449
0.00103977188
0.001020012253
0.001000974047
0.0009826840236
0.0009651025065
0.0009481096794
0.0009318601802
0.0009160274844
0.0009008634359
0.0008862137873
0.0008720257027
0.0008584107991
0.0008451737019
0.0008323925114
0.0008201075216
0.0008081361328
0.0007965766373
0.0007854509822
0.0007746310457
0.0007641289111
0.0007540067898
0.0007442317246
0.0007346572438
0.0007254165632
0.0007164950097
0.0007078370717
0.0006993706725
0.0006911852751
0.0006832685458
0.0006755978875
0.0006680611815
0.0006607624037
0.0006536896502
0.0006468327134
0.000640133743
0.0006335742093
0.0006272051378
0.0006210187524
0.000615007044
0.0006091360071
0.0006033579031
0.0005977343732
0.0005922594464
0.0005869270196
0.000581730786
0.0005766254346
0.0005716067354
0.0005667094918
0.00056192952
0.000557262567
0.0005527042569
0.0005482480395
0.0005438273043
0.0005395042338
0.0005352760382
0.0005311398969
0.0005270929144
0.0005231320784
0.0005192541955
0.0005154114466
0.0005116331518
0.000507931396
0.0005043043821
0.0005007502641
0.0004972670986
0.0004938528259
0.0004905052068
0.0004871948329
0.0004839265152
0.0004807202091
0.0004775747146
0.0004744887901
0.000471461113
0.0004684902794
0.0004655747571
0.0004627128747
0.0004598941371
0.0004570958414
0.0004543472375
0.0004516474497
0.0004489955603
0.0004463906193
0.0004438316187
0.0004413174969
0.0004388471081
0.0004364192156
0.0004340324542
0.0004316707286
0.0004293306921
0.0004270288662
0.0004247645818
0.0004225371655
0.0004203459277
0.0004181901654
0.000416069149
0.0004139821209
0.0004119282783
0.0004099067642
0.0004079166436
0.0004059568848
0.0004040035573
0.0004020765973
0.0004001782676
0.0003983081794
0.0003964659459
0.0003946511829
0.0003928635027
0.0003911025122
0.0003893678069
0.0003876589648
0.000385975539
0.0003843170471
0.0003826829595
0.0003810726827
0.0003794854092
0.0003779005081
0.0003763379845
0.000374797629
0.0003732792315
0.0003717825762
0.0003703074444
0.0003688536085
0.0003674208346
0.0003660088746
0.0003646174688
0.0003632463361
0.0003618951754
0.0003605636509
0.0003592513909
0.0003579579686
0.0003566828934
0.0003554255801
0.0003541853292
0.0003529493429
0.0003517279993
0.0003505238698
0.0003493367362
0.0003481663721
0.0003470125543
0.0003458750498
0.0003447536295
0.0003436480555
0.0003425580942
0.0003414835017
0.0003404240379
0.0003393794529
0.0003383494998
0.0003373339188
0.0003363324513
0.0003353448234
0.0003343707586
0.0003334099587
0.0003324621152
0.0003315268892
0.0003306039189
0.0003296927939
0.0003287886701
0.0003278891107
0.0003270004871
0.0003261225837
0.000325255192
0.0003243980955
0.0003235510845
0.0003227139404
0.000321886451
0.0003210683962
0.0003202595625
0.0003194597274
0.0003186686744
0.0003178861795
0.0003171120243
0.0003163459823
0.0003155878319
0.0003148373443
0.0003140942956
0.0003133584531
0.0003126295886
0.0003119074655
0.0003111918502
0.0003104824993
0.0003097791703
0.0003090816096
0.000308389561
0.0003077027535
0.0003070209073
0.000306343722
0.0003056708787
0.0003050020258
0.000304329224
0.0003036596079
0.0003029932232
0.0003023298676
0.0003016693344
0.0003010113784
0.0003003563491
0.0002997030122
0.0002990517382
0.0002984024389
0.0002977549534
0.0002971091255
0.0002964648049
0.0002958218472
0.0002951801138
0.0002945394733
0.0002938997997
0.000293260975
0.0002926228857
0.0002919854275
0.0002913485003
0.0002907120129
0.0002900758774
0.0002894400157
0.0002888043518
0.0002881688189
0.0002875333505
0.0002868978893
0.0002862623766
0.0002856267604
0.0002849909837
0.0002843549954
0.0002837187348
0.0002830821416
0.00028244514
0.0002818076485
0.000281166778
0.0002805207913
0.0002798742322
0.0002792271841
0.0002785797349
0.0002779319974
0.0002772840812
0.0002766359914
0.0002759877163
0.0002753403416
0.0002746933093
0.0002740467674
0.0002734008659
0.0002727557728
0.0002721116531
0.0002714686895
0.000270827061
0.0002701869614
0.0002695485797
0.000268912121
0.0002682777843
0.0002676457822
0.0002670163202
0.0002663896174
0.0002657658845
0.0002651453431
0.0002645282045
0.0002639146904
0.0002633050106
0.000262699381
0.0002620980034
0.0002615010839
0.0002609088113
0.0002603213734
0.0002597389367
0.0002591616625
0.0002585896858
0.0002580225385
0.0002574610772
0.0002569055739
0.0002563562796
0.0002558134489
0.0002552773246
0.0002547481528
0.0002542261672
0.0002537116026
0.000253204681
0.0002527056247
0.0002522146432
0.0002517319438
0.0002512577213
0.000250792167
0.0002503354599
0.0002498877739
0.0002494492701
0.0002490201038
0.0002486004178
0.0002481903472
0.000247790015
0.0002473995355
0.0002470190111
0.0002466485343
0.0002462881863
0.0002459380369
0.0002455981453
0.0002452685585
0.0002449493133
0.0002446404334
0.0002443419326
0.0002440538113
0.0002437760609
0.0002435086579
0.0002432515708
0.0002430047528
0.0002427681504
0.0002425416934
0.0002423253057
0.0002421188948
0.0002419223634
0.0002417355968
0.0002415584759
0.0002413908651
0.0002412326258
0.0002410836015
0.0002409436334
0.0002408125462
0.0002406901636
0.000240576291
0.0002404707341
0.0002403732817
0.0002402837242
0.000240201834
0.0002401273854
0.0002400601368
0.00023999985
0.0002399462693
0.0002398991433
0.000239858205
0.0002398231932
0.0002397938296
0.0002397698425
0.0002397509454
0.0002397368593
0.0002397272895
0.0002397219494
0.0002397205388
0.0002397227666
0.0002397283273
0.000239736925
0.0002397482515
0.0002397620093
0.0002397778876
0.0002397955866
0.0002398147956
0.0002398352159
0.0002398565368
0.0002398784599
0.0002399006774
0.0002399228941
0.0002399448048
0.0002399661173
0.0002399865316
0.0002400057611
0.0002400235111
0.0002400395004
0.000240053442
0.0002400650628
0.0002400740839
0.0002400802402
0.0002400832634
0.0002400828991
0.0002400788902
0.0002400709935
0.0002400589657
0.000240042579
0.000240021608
0.0002399958492
0.0002399651233
0.0002399293323
0.00023988749
0.0002398413548
0.0002397880728
0.0002397288696
0.0002396624418
0.0002395892373
0.00023951013
0.0002394249062
0.0002393335482
0.0002392360735
0.0002391325363
0.0002390230412
0.0002389077456
0.0002387868748
0.0002386607281
0.0002385296977
0.0002383942828
0.0002382551157
0.0002381129897
0.0002379689009
0.0002378241087
0.0002376802139
0.0002375392809
0.000237403995
0.0002372779075
0.0002371657318
0.0002370737776
0.0002370471133
0.0002370445675
0.0002370419969
0.0002370394059
0.0002370367993
0.0002370341819
0.0002370315589
0.0002370289346
0.0002370263163
0.000237023706
0.0002370211104
0.0002370185352
0.0002370159855
0.000237013467
0.0002370109849
0.0002370085448
0.0002370061523
0.0002370038128
0.0002370015319
0.0002369993153
0.0002369971686
0.0002369950974
0.0002369931076
0.0002369912047
0.0002369893947
0.0002369876832
0.0002369860761
0.0002369845792
0.0002369831984
0.0002369819396
0.0002369808086
0.0002369798113
0.0002369789538
0.000236978242
0.0002369776819
0.0002369772795
0.0002369770414
0.0002369769756
0.0002369770751
0.0002369773703
0.0002369778595
0.0002369785431
0.0002369794274
0.0002369805186
0.0002369818228
0.0002369833462
0.000236985095
0.0002369870752
0.000236989293
0.0002369917546
0.0002369944658
0.0002369974329
0.0002370006617
0.0002370041581
0.0002370079278
0.0002370119765
0.0002370163095
0.0002370209322
0.0002370258493
0.0002370310654
0.0002370365848
0.0002370424108
0.0002370485464
0.0002370549938
0.0002370617537
0.0002370688262
0.0002370762093
0.0002370838995
0.0002370918907
0.0002371001741
0.0002371087374
0.0002371175642
0.0002371266328
0.0002371359153
0.000237145376
0.00023715497
0.0002371646411
0.0002371743191
0.0002371839172
0.0002371933283
0.0002372024207
0.0002372110331
0.0002372189685
0.000237225987
0.0002372317974
0.0002372360473
0.0002372383122
)
;

boundaryField
{
    inlet
    {
        type            calculated;
        value           uniform 6.603740606e-13;
    }
    outlet
    {
        type            calculated;
        value           uniform 0.0002372383122;
    }
    upperWall
    {
        type            empty;
    }
    lowerWall
    {
        type            empty;
    }
    frontAndBack
    {
        type            empty;
    }
}


// ************************************************************************* //
