/*--------------------------------*- C++ -*----------------------------------*\
  =========                 |
  \\      /  F ield         | OpenFOAM: The Open Source CFD Toolbox
   \\    /   O peration     | Website:  https://openfoam.org
    \\  /    A nd           | Version:  9
     \\/     M anipulation  |
\*---------------------------------------------------------------------------*/
FoamFile
{
    format      ascii;
    class       volScalarField;
    location    "0.019";
    object      p;
}
// * * * * * * * * * * * * * * * * * * * * * * * * * * * * * * * * * * * * * //

dimensions      [1 -1 -2 0 0 0 0];

internalField   nonuniform List<scalar> 
1000
(
101326.1699
101326.1699
101326.1699
101326.1699
101326.1699
101326.1699
101326.1699
101326.1699
101326.1699
101326.1699
101326.1699
101326.1699
101326.1699
101326.1699
101326.1699
101326.1699
101326.1699
101326.17
101326.17
101326.17
101326.17
101326.17
101326.17
101326.17
101326.17
101326.17
101326.17
101326.17
101326.17
101326.17
101326.17
101326.17
101326.1701
101326.1701
101326.1701
101326.1701
101326.1701
101326.1701
101326.1701
101326.1701
101326.1701
101326.1701
101326.1701
101326.1702
101326.1702
101326.1702
101326.1702
101326.1702
101326.1702
101326.1702
101326.1702
101326.1702
101326.1702
101326.1702
101326.1703
101326.1703
101326.1703
101326.1703
101326.1703
101326.1703
101326.1703
101326.1703
101326.1703
101326.1704
101326.1704
101326.1704
101326.1704
101326.1704
101326.1704
101326.1704
101326.1704
101326.1704
101326.1705
101326.1705
101326.1705
101326.1705
101326.1705
101326.1705
101326.1705
101326.1705
101326.1706
101326.1706
101326.1706
101326.1706
101326.1706
101326.1706
101326.1706
101326.1706
101326.1707
101326.1707
101326.1707
101326.1707
101326.1707
101326.1707
101326.1707
101326.1707
101326.1708
101326.1708
101326.1708
101326.1708
101326.1708
101326.1708
101326.1708
101326.1708
101326.1709
101326.1709
101326.1709
101326.1709
101326.1709
101326.1709
101326.1709
101326.171
101326.171
101326.171
101326.171
101326.171
101326.171
101326.171
101326.171
101326.1711
101326.1711
101326.1711
101326.1711
101326.1711
101326.1711
101326.1711
101326.1711
101326.1711
101326.1712
101326.1712
101326.1712
101326.1712
101326.1712
101326.1712
101326.1712
101326.1712
101326.1713
101326.1713
101326.1713
101326.1713
101326.1713
101326.1713
101326.1713
101326.1713
101326.1713
101326.1714
101326.1714
101326.1714
101326.1714
101326.1714
101326.1714
101326.1714
101326.1714
101326.1714
101326.1714
101326.1715
101326.1715
101326.1715
101326.1715
101326.1715
101326.1715
101326.1715
101326.1715
101326.1715
101326.1715
101326.1715
101326.1715
101326.1716
101326.1716
101326.1716
101326.1716
101326.1716
101326.1716
101326.1716
101326.1716
101326.1716
101326.1716
101326.1716
101326.1716
101326.1716
101326.1716
101326.1716
101326.1716
101326.1717
101326.1717
101326.1717
101326.1717
101326.1717
101326.1717
101326.1717
101326.1717
101326.1717
101326.1717
101326.1717
101326.1717
101326.1717
101326.1717
101326.1717
101326.1717
101326.1717
101326.1717
101326.1717
101326.1717
101326.1717
101326.1717
101326.1717
101326.1717
101326.1717
101326.1717
101326.1717
101326.1717
101326.1717
101326.1717
101326.1717
101326.1717
101326.1717
101326.1717
101326.1717
101326.1717
101326.1717
101326.1717
101326.1717
101326.1717
101326.1717
101326.1717
101326.1717
101326.1717
101326.1717
101326.1717
101326.1717
101326.1717
101326.1717
101326.1717
101326.1717
101326.1717
101326.1716
101326.1716
101326.1716
101326.1716
101326.1716
101326.1716
101326.1716
101326.1716
101326.1716
101326.1716
101326.1716
101326.1716
101326.1716
101326.1716
101326.1715
101326.1715
101326.1715
101326.1715
101326.1715
101326.1715
101326.1715
101326.1715
101326.1715
101326.1715
101326.1714
101326.1714
101326.1714
101326.1714
101326.1714
101326.1714
101326.1714
101326.1714
101326.1714
101326.1714
101326.1714
101326.1713
101326.1713
101326.1713
101326.1713
101326.1713
101326.1713
101326.1713
101326.1712
101326.1712
101326.1712
101326.1712
101326.1712
101326.1712
101326.1712
101326.1711
101326.1711
101326.1711
101326.1711
101326.1711
101326.1711
101326.1711
101326.171
101326.171
101326.171
101326.171
101326.171
101326.171
101326.171
101326.1709
101326.1709
101326.1709
101326.1709
101326.1709
101326.1709
101326.1708
101326.1708
101326.1708
101326.1708
101326.1708
101326.1708
101326.1708
101326.1707
101326.1707
101326.1707
101326.1707
101326.1707
101326.1707
101326.1707
101326.1706
101326.1706
101326.1706
101326.1706
101326.1706
101326.1706
101326.1705
101326.1705
101326.1705
101326.1705
101326.1705
101326.1705
101326.1704
101326.1704
101326.1704
101326.1704
101326.1704
101326.1704
101326.1704
101326.1703
101326.1703
101326.1703
101326.1703
101326.1703
101326.1703
101326.1703
101326.1703
101326.1702
101326.1702
101326.1702
101326.1702
101326.1702
101326.1702
101326.1702
101326.1702
101326.1701
101326.1701
101326.1701
101326.1701
101326.1701
101326.1701
101326.1701
101326.1701
101326.1701
101326.1701
101326.1701
101326.1701
101326.1701
101326.1701
101326.1701
101326.1701
101326.1701
101326.1701
101326.1701
101326.1701
101326.1701
101326.1701
101326.17
101326.17
101326.1701
101326.1701
101326.1701
101326.1701
101326.1701
101326.1701
101326.1701
101326.1701
101326.1701
101326.1701
101326.1701
101326.1701
101326.1701
101326.1701
101326.1701
101326.1701
101326.1701
101326.1701
101326.1701
101326.1701
101326.1701
101326.1702
101326.1702
101326.1702
101326.1702
101326.1702
101326.1702
101326.1702
101326.1702
101326.1702
101326.1702
101326.1703
101326.1703
101326.1703
101326.1703
101326.1703
101326.1703
101326.1703
101326.1704
101326.1704
101326.1704
101326.1704
101326.1704
101326.1705
101326.1705
101326.1705
101326.1705
101326.1705
101326.1706
101326.1706
101326.1706
101326.1706
101326.1707
101326.1707
101326.1707
101326.1708
101326.1708
101326.1709
101326.1709
101326.1709
101326.1709
101326.171
101326.171
101326.171
101326.1711
101326.1711
101326.1711
101326.1711
101326.1712
101326.1712
101326.1713
101326.1713
101326.1713
101326.1714
101326.1714
101326.1714
101326.1715
101326.1715
101326.1715
101326.1716
101326.1716
101326.1717
101326.1718
101326.1719
101326.172
101326.1722
101326.1724
101326.1727
101326.1731
101326.1736
101326.1743
101326.1754
101326.1761
101326.1749
101326.1703
101326.1643
101326.1584
101326.1348
101326.0627
101325.9403
101325.7933
101325.6447
101325.5069
101325.3868
101325.2876
101325.2094
101325.1488
101325.1014
101325.0635
101325.0331
101325.0088
101324.9892
101324.9732
101324.96
101324.949
101324.9398
101324.9319
101324.9253
101324.9196
101324.9146
101324.9104
101324.9067
101324.9035
101324.9007
101324.8982
101324.896
101324.8941
101324.8924
101324.8908
101324.8895
101324.8883
101324.8872
101324.8862
101324.8854
101324.8846
101324.8839
101324.8833
101324.8827
101324.8822
101324.8817
101324.8813
101324.881
101324.8807
101324.8804
101324.8801
101324.8799
101324.8797
101324.8795
101324.8794
101324.8792
101324.8791
101324.879
101324.879
101324.8789
101324.8789
101324.8788
101324.8788
101324.8788
101324.8788
101324.8788
101324.8788
101324.8788
101324.8789
101324.8789
101324.8789
101324.879
101324.879
101324.8791
101324.8792
101324.8793
101324.8793
101324.8794
101324.8795
101324.8796
101324.8797
101324.8798
101324.8799
101324.88
101324.8801
101324.8802
101324.8803
101324.8804
101324.8805
101324.8806
101324.8807
101324.8809
101324.881
101324.8811
101324.8812
101324.8813
101324.8815
101324.8816
101324.8817
101324.8818
101324.882
101324.8821
101324.8822
101324.8824
101324.8825
101324.8826
101324.8828
101324.8829
101324.883
101324.8832
101324.8833
101324.8834
101324.8836
101324.8837
101324.8838
101324.884
101324.8841
101324.8842
101324.8844
101324.8845
101324.8846
101324.8848
101324.8849
101324.885
101324.8852
101324.8853
101324.8854
101324.8856
101324.8857
101324.8858
101324.886
101324.8861
101324.8863
101324.8864
101324.8865
101324.8867
101324.8868
101324.8869
101324.887
101324.8872
101324.8873
101324.8874
101324.8876
101324.8877
101324.8878
101324.888
101324.8881
101324.8882
101324.8884
101324.8885
101324.8886
101324.8887
101324.8889
101324.889
101324.8891
101324.8893
101324.8894
101324.8895
101324.8896
101324.8898
101324.8899
101324.89
101324.8901
101324.8903
101324.8904
101324.8905
101324.8906
101324.8907
101324.8909
101324.891
101324.8911
101324.8912
101324.8914
101324.8915
101324.8916
101324.8917
101324.8918
101324.892
101324.8921
101324.8922
101324.8923
101324.8924
101324.8926
101324.8927
101324.8928
101324.8929
101324.893
101324.8931
101324.8933
101324.8934
101324.8935
101324.8936
101324.8937
101324.8938
101324.894
101324.8941
101324.8942
101324.8943
101324.8944
101324.8945
101324.8947
101324.8948
101324.8949
101324.895
101324.8951
101324.8952
101324.8953
101324.8955
101324.8956
101324.8957
101324.8958
101324.8959
101324.896
101324.8962
101324.8963
101324.8964
101324.8965
101324.8966
101324.8967
101324.8968
101324.897
101324.8971
101324.8972
101324.8973
101324.8974
101324.8975
101324.8977
101324.8978
101324.8979
101324.898
101324.8981
101324.8983
101324.8984
101324.8985
101324.8986
101324.8987
101324.8989
101324.899
101324.8991
101324.8992
101324.8993
101324.8995
101324.8996
101324.8997
101324.8998
101324.8999
101324.9001
101324.9002
101324.9003
101324.9004
101324.9006
101324.9007
101324.9008
101324.901
101324.9011
101324.9012
101324.9013
101324.9015
101324.9016
101324.9017
101324.9019
101324.902
101324.9021
101324.9023
101324.9024
101324.9025
101324.9027
101324.9028
101324.9029
101324.9031
101324.9032
101324.9034
101324.9035
101324.9036
101324.9038
101324.9039
101324.9041
101324.9042
101324.9044
101324.9045
101324.9046
101324.9048
101324.9049
101324.9051
101324.9052
101324.9054
101324.9055
101324.9057
101324.9058
101324.906
101324.9062
101324.9063
101324.9065
101324.9066
101324.9068
101324.907
101324.9071
101324.9073
101324.9074
101324.9076
101324.9078
101324.9079
101324.9081
101324.9083
101324.9084
101324.9086
101324.9088
101324.909
101324.9091
101324.9093
101324.9095
101324.9097
101324.9098
101324.91
101324.9102
101324.9104
101324.9106
101324.9108
101324.9109
101324.9111
101324.9113
101324.9115
101324.9117
101324.9119
101324.9121
101324.9123
101324.9125
101324.9127
101324.9129
101324.9131
101324.9133
101324.9135
101324.9137
101324.9139
101324.9141
101324.9143
101324.9145
101324.9147
101324.9149
101324.9152
101324.9154
101324.9156
101324.9158
101324.916
101324.9162
101324.9165
101324.9167
101324.9169
101324.9171
101324.9174
101324.9176
101324.9178
101324.9181
101324.9183
101324.9185
101324.9188
101324.919
101324.9192
101324.9195
101324.9197
101324.92
101324.9202
101324.9205
101324.9207
101324.921
101324.9212
101324.9215
101324.9217
101324.922
101324.9222
101324.9225
101324.9227
101324.923
101324.9233
101324.9235
101324.9238
101324.9241
101324.9243
101324.9246
101324.9249
101324.9251
101324.9254
101324.9257
101324.926
101324.9263
101324.9265
101324.9268
101324.9271
101324.9274
101324.9277
101324.928
101324.9283
101324.9285
101324.9288
101324.9291
101324.9294
101324.9297
101324.93
101324.9303
101324.9306
101324.9309
101324.9312
101324.9315
101324.9319
101324.9322
101324.9325
101324.9328
101324.9331
101324.9334
101324.9338
101324.9341
101324.9344
101324.9347
101324.935
101324.9354
101324.9357
101324.936
101324.9364
101324.9367
101324.9371
101324.9374
101324.9378
101324.9381
101324.9384
101324.9388
101324.9391
101324.9395
101324.9398
101324.9402
101324.9406
101324.9409
101324.9413
101324.9417
101324.942
101324.9424
101324.9428
101324.9431
101324.9435
101324.9439
101324.9443
101324.9447
101324.9451
101324.9455
101324.9459
101324.9463
101324.9467
101324.9471
101324.9475
101324.9479
101324.9483
101324.9487
101324.9491
101324.9496
101324.95
101324.9504
101324.9508
101324.9512
101324.9517
101324.9521
101324.9525
101324.9529
101324.9534
101324.9538
101324.9542
101324.9547
101324.9551
101324.9555
101324.956
101324.9564
101324.9569
101324.9573
101324.9578
101324.9582
101324.9587
101324.9592
101324.9596
101324.9601
101324.9606
101324.961
101324.9615
101324.9619
101324.9624
101324.9629
101324.9634
101324.9638
101324.9643
101324.9648
101324.9653
101324.9658
101324.9663
101324.9668
101324.9674
101324.9679
101324.9684
101324.9689
101324.9694
101324.97
101324.9705
101324.9711
101324.9716
101324.9722
101324.9728
101324.9733
101324.9739
101324.9745
101324.975
101324.9756
101324.9762
101324.9768
101324.9775
101324.9781
101324.9788
101324.9795
101324.9802
101324.981
101324.9818
101324.9825
101324.9834
101324.9842
101324.9851
101324.986
101324.987
101324.9881
101324.9893
101324.9906
101324.9923
101324.9943
101324.9968
101324.9991
)
;

boundaryField
{
    inlet
    {
        type            zeroGradient;
    }
    outlet
    {
        type            totalPressure;
        rho             rho;
        psi             none;
        gamma           1;
        p0              uniform 101325;
        value           uniform 101325;
    }
    upperWall
    {
        type            empty;
    }
    lowerWall
    {
        type            empty;
    }
    frontAndBack
    {
        type            empty;
    }
}


// ************************************************************************* //
