/*--------------------------------*- C++ -*----------------------------------*\
  =========                 |
  \\      /  F ield         | OpenFOAM: The Open Source CFD Toolbox
   \\    /   O peration     | Website:  https://openfoam.org
    \\  /    A nd           | Version:  9
     \\/     M anipulation  |
\*---------------------------------------------------------------------------*/
FoamFile
{
    format      ascii;
    class       surfaceScalarField;
    location    "0.019";
    object      phi;
}
// * * * * * * * * * * * * * * * * * * * * * * * * * * * * * * * * * * * * * //

dimensions      [1 0 -1 0 0 0 0];

internalField   nonuniform List<scalar> 
999
(
2.452201171e-08
2.452171015e-08
2.452140859e-08
2.452110703e-08
2.452080547e-08
2.452050391e-08
2.452020235e-08
2.451990079e-08
2.451959924e-08
2.451929769e-08
2.451899614e-08
2.451869459e-08
2.451839304e-08
2.45180915e-08
2.451778996e-08
2.451748842e-08
2.451718689e-08
2.451688536e-08
2.451658383e-08
2.451628231e-08
2.451598078e-08
2.451567927e-08
2.451537776e-08
2.451507625e-08
2.451477475e-08
2.451447326e-08
2.451417176e-08
2.451387028e-08
2.45135688e-08
2.451326733e-08
2.451296586e-08
2.45126644e-08
2.451236294e-08
2.451206149e-08
2.451176005e-08
2.451145862e-08
2.451115719e-08
2.451085577e-08
2.451055435e-08
2.451025295e-08
2.450995155e-08
2.450965017e-08
2.450934878e-08
2.450904741e-08
2.450874605e-08
2.45084447e-08
2.450814335e-08
2.450784202e-08
2.450754069e-08
2.450723938e-08
2.450693807e-08
2.450663678e-08
2.45063355e-08
2.450603422e-08
2.450573296e-08
2.450543171e-08
2.450513047e-08
2.450482924e-08
2.450452802e-08
2.450422682e-08
2.450392563e-08
2.450362445e-08
2.450332328e-08
2.450302213e-08
2.450272099e-08
2.450241986e-08
2.450211874e-08
2.450181764e-08
2.450151656e-08
2.450121549e-08
2.450091442e-08
2.450061338e-08
2.450031235e-08
2.450001134e-08
2.449971034e-08
2.449940936e-08
2.449910839e-08
2.449880744e-08
2.449850651e-08
2.449820559e-08
2.449790469e-08
2.449760381e-08
2.449730294e-08
2.449700209e-08
2.449670126e-08
2.449640044e-08
2.449609965e-08
2.449579887e-08
2.449549811e-08
2.449519737e-08
2.449489665e-08
2.449459595e-08
2.449429527e-08
2.449399461e-08
2.449369397e-08
2.449339335e-08
2.449309275e-08
2.449279217e-08
2.449249161e-08
2.449219108e-08
2.449189056e-08
2.449159007e-08
2.44912896e-08
2.449098916e-08
2.449068873e-08
2.449038833e-08
2.449008795e-08
2.44897876e-08
2.448948727e-08
2.448918696e-08
2.448888668e-08
2.448858642e-08
2.448828619e-08
2.448798598e-08
2.44876858e-08
2.448738565e-08
2.448708552e-08
2.448678542e-08
2.448648534e-08
2.448618529e-08
2.448588527e-08
2.448558528e-08
2.448528531e-08
2.448498537e-08
2.448468546e-08
2.448438558e-08
2.448408573e-08
2.44837859e-08
2.448348611e-08
2.448318635e-08
2.448288661e-08
2.448258691e-08
2.448228723e-08
2.448198759e-08
2.448168798e-08
2.44813884e-08
2.448108885e-08
2.448078934e-08
2.448048986e-08
2.448019041e-08
2.447989099e-08
2.447959161e-08
2.447929226e-08
2.447899294e-08
2.447869366e-08
2.447839441e-08
2.447809519e-08
2.447779602e-08
2.447749687e-08
2.447719777e-08
2.44768987e-08
2.447659966e-08
2.447630066e-08
2.44760017e-08
2.447570277e-08
2.447540389e-08
2.447510504e-08
2.447480623e-08
2.447450745e-08
2.447420872e-08
2.447391002e-08
2.447361136e-08
2.447331274e-08
2.447301417e-08
2.447271563e-08
2.447241713e-08
2.447211867e-08
2.447182026e-08
2.447152188e-08
2.447122355e-08
2.447092525e-08
2.4470627e-08
2.447032879e-08
2.447003063e-08
2.44697325e-08
2.446943442e-08
2.446913639e-08
2.446883839e-08
2.446854044e-08
2.446824254e-08
2.446794468e-08
2.446764686e-08
2.446734909e-08
2.446705137e-08
2.446675369e-08
2.446645605e-08
2.446615846e-08
2.446586092e-08
2.446556343e-08
2.446526598e-08
2.446496858e-08
2.446467123e-08
2.446437392e-08
2.446407667e-08
2.446377946e-08
2.44634823e-08
2.446318518e-08
2.446288812e-08
2.446259111e-08
2.446229415e-08
2.446199724e-08
2.446170039e-08
2.446140361e-08
2.446110688e-08
2.446081022e-08
2.446051362e-08
2.446021707e-08
2.445992057e-08
2.445962412e-08
2.445932773e-08
2.445903139e-08
2.44587351e-08
2.445843886e-08
2.445814267e-08
2.445784654e-08
2.445755046e-08
2.445725444e-08
2.445695847e-08
2.445666255e-08
2.445636669e-08
2.445607088e-08
2.445577513e-08
2.445547943e-08
2.445518379e-08
2.44548882e-08
2.445459267e-08
2.445429719e-08
2.445400177e-08
2.44537064e-08
2.44534111e-08
2.445311584e-08
2.445282065e-08
2.445252551e-08
2.445223043e-08
2.445193541e-08
2.445164045e-08
2.445134554e-08
2.445105069e-08
2.44507559e-08
2.445046117e-08
2.445016649e-08
2.444987188e-08
2.444957732e-08
2.444928283e-08
2.444898838e-08
2.444869401e-08
2.444839969e-08
2.444810544e-08
2.444781123e-08
2.44475171e-08
2.444722302e-08
2.444692901e-08
2.444663505e-08
2.444634117e-08
2.444604733e-08
2.444575356e-08
2.444545985e-08
2.444516621e-08
2.444487262e-08
2.444457912e-08
2.444428566e-08
2.44439923e-08
2.4443699e-08
2.444340579e-08
2.444311264e-08
2.444281958e-08
2.444252658e-08
2.444223367e-08
2.444194081e-08
2.444164804e-08
2.444135531e-08
2.444106266e-08
2.444077005e-08
2.444047753e-08
2.444018506e-08
2.443989267e-08
2.443960033e-08
2.443930807e-08
2.443901586e-08
2.443872374e-08
2.443843166e-08
2.443813967e-08
2.443784772e-08
2.443755586e-08
2.443726405e-08
2.443697233e-08
2.443668065e-08
2.443638906e-08
2.443609752e-08
2.443580607e-08
2.443551466e-08
2.443522335e-08
2.443493208e-08
2.443464091e-08
2.443434977e-08
2.443405874e-08
2.443376774e-08
2.443347685e-08
2.4433186e-08
2.443289525e-08
2.443260455e-08
2.443231395e-08
2.443202341e-08
2.443173298e-08
2.44314426e-08
2.443115234e-08
2.443086213e-08
2.443057202e-08
2.443028194e-08
2.442999198e-08
2.442970205e-08
2.442941223e-08
2.442912245e-08
2.442883278e-08
2.442854315e-08
2.442825364e-08
2.442796415e-08
2.442767479e-08
2.442738546e-08
2.442709625e-08
2.442680708e-08
2.442651802e-08
2.4426229e-08
2.44259401e-08
2.442565124e-08
2.44253625e-08
2.442507379e-08
2.442478521e-08
2.442449667e-08
2.442420825e-08
2.442391987e-08
2.442363161e-08
2.442334339e-08
2.442305531e-08
2.442276727e-08
2.442247936e-08
2.44221915e-08
2.442190378e-08
2.442161612e-08
2.442132859e-08
2.442104111e-08
2.442075376e-08
2.442046647e-08
2.442017932e-08
2.441989221e-08
2.441960524e-08
2.441931832e-08
2.441903153e-08
2.441874479e-08
2.441845818e-08
2.441817163e-08
2.441788521e-08
2.441759883e-08
2.441731257e-08
2.441702635e-08
2.441674025e-08
2.441645419e-08
2.441616828e-08
2.441588245e-08
2.441559675e-08
2.441531113e-08
2.441502565e-08
2.441474025e-08
2.441445499e-08
2.441416981e-08
2.441388477e-08
2.441359981e-08
2.441331496e-08
2.441303019e-08
2.441274552e-08
2.441246093e-08
2.441217648e-08
2.441189213e-08
2.441160793e-08
2.441132382e-08
2.441103984e-08
2.441075594e-08
2.441047217e-08
2.441018851e-08
2.440990496e-08
2.440962151e-08
2.44093382e-08
2.440905501e-08
2.440877196e-08
2.440848905e-08
2.440820629e-08
2.440792366e-08
2.440764116e-08
2.440735881e-08
2.440707659e-08
2.440679449e-08
2.440651251e-08
2.440623068e-08
2.440594898e-08
2.440566746e-08
2.440538607e-08
2.440510486e-08
2.440482378e-08
2.440454289e-08
2.440426214e-08
2.440398159e-08
2.440370117e-08
2.440342097e-08
2.44031409e-08
2.440286105e-08
2.440258134e-08
2.440230185e-08
2.44020225e-08
2.440174338e-08
2.440146441e-08
2.440118568e-08
2.440090709e-08
2.440062875e-08
2.440035056e-08
2.440007264e-08
2.439979485e-08
2.439951735e-08
2.439923999e-08
2.439896293e-08
2.4398686e-08
2.439840939e-08
2.439813291e-08
2.439785676e-08
2.439758075e-08
2.439730506e-08
2.439702951e-08
2.439675429e-08
2.43964792e-08
2.439620443e-08
2.439592974e-08
2.439565537e-08
2.439538109e-08
2.439510711e-08
2.439483318e-08
2.43945595e-08
2.43942858e-08
2.439401224e-08
2.43937385e-08
2.439346471e-08
2.439319043e-08
2.439291571e-08
2.439263997e-08
2.439236304e-08
2.439208407e-08
2.439180258e-08
2.439151725e-08
2.439122695e-08
2.439092947e-08
2.439062248e-08
2.439030215e-08
2.438996397e-08
2.438960115e-08
2.438920514e-08
2.43887637e-08
2.438826088e-08
2.438767441e-08
2.438697485e-08
2.438612189e-08
2.438506239e-08
2.438371754e-08
2.438200377e-08
2.437981118e-08
2.437702211e-08
2.437352798e-08
2.436939883e-08
2.436505491e-08
2.436210086e-08
2.43647598e-08
2.438322351e-08
2.44385256e-08
2.456472181e-08
2.477177724e-08
2.508586018e-08
2.543610251e-08
2.573340519e-08
2.593521502e-08
2.606455695e-08
2.614841461e-08
2.62051377e-08
2.624337377e-08
2.626935793e-08
2.628777232e-08
2.630081536e-08
2.631057257e-08
2.631798499e-08
2.632377063e-08
2.632835312e-08
2.633209354e-08
2.633522882e-08
2.633791712e-08
2.634026468e-08
2.634237282e-08
2.634426924e-08
2.634598315e-08
2.634756861e-08
2.634902558e-08
2.63503813e-08
2.635164232e-08
2.635281375e-08
2.63538899e-08
2.635488342e-08
2.635579581e-08
2.635662867e-08
2.635738355e-08
2.635806241e-08
2.635866733e-08
2.635920078e-08
2.635966541e-08
2.6360069e-08
2.636041021e-08
2.636069307e-08
2.636092187e-08
2.636110466e-08
2.63612422e-08
2.636133927e-08
2.636140364e-08
2.636143689e-08
2.636144377e-08
2.636143105e-08
2.63614005e-08
2.636135809e-08
2.636130543e-08
2.636124759e-08
2.636118589e-08
2.636112435e-08
2.636106387e-08
2.636100747e-08
2.636095557e-08
2.636091023e-08
2.636087227e-08
2.63608414e-08
2.636081864e-08
2.636080328e-08
2.636079575e-08
2.636079546e-08
2.636080159e-08
2.636081367e-08
2.636083103e-08
2.636085236e-08
2.636087755e-08
2.636090523e-08
2.636093451e-08
2.636096458e-08
2.636099479e-08
2.636102402e-08
2.636105195e-08
2.636107776e-08
2.636110112e-08
2.636112123e-08
2.636113808e-08
2.636115121e-08
2.636116068e-08
2.636116585e-08
2.636116725e-08
2.636116452e-08
2.636115795e-08
2.636114745e-08
2.636113321e-08
2.63611154e-08
2.636109446e-08
2.636107041e-08
2.636104375e-08
2.63610143e-08
2.636098278e-08
2.63609492e-08
2.636091406e-08
2.636087736e-08
2.636083958e-08
2.636080052e-08
2.636076078e-08
2.636072028e-08
2.636067939e-08
2.6360638e-08
2.636059644e-08
2.636055441e-08
2.636051235e-08
2.636047004e-08
2.636042774e-08
2.636038518e-08
2.636034259e-08
2.636029971e-08
2.636025671e-08
2.636021323e-08
2.636016952e-08
2.636012529e-08
2.636008069e-08
2.636003542e-08
2.635998963e-08
2.635994302e-08
2.635989575e-08
2.635984749e-08
2.635979844e-08
2.635974833e-08
2.635969733e-08
2.635964518e-08
2.635959206e-08
2.635953772e-08
2.635948237e-08
2.635942576e-08
2.635936809e-08
2.635930917e-08
2.635924921e-08
2.635918802e-08
2.635912582e-08
2.635906242e-08
2.635899806e-08
2.635893257e-08
2.635886618e-08
2.635879872e-08
2.635873043e-08
2.635866114e-08
2.635859109e-08
2.635852015e-08
2.635844853e-08
2.635837611e-08
2.635830309e-08
2.635822935e-08
2.63581551e-08
2.63580802e-08
2.635800487e-08
2.635792897e-08
2.635785271e-08
2.635777596e-08
2.635769889e-08
2.63576214e-08
2.635754367e-08
2.635746559e-08
2.635738733e-08
2.635730878e-08
2.63572301e-08
2.63571512e-08
2.635707221e-08
2.635699306e-08
2.635691388e-08
2.635683458e-08
2.63567553e-08
2.635667597e-08
2.635659669e-08
2.635651739e-08
2.635643821e-08
2.635635909e-08
2.635628014e-08
2.63562013e-08
2.635612267e-08
2.635604422e-08
2.635596603e-08
2.635588807e-08
2.635581042e-08
2.635573306e-08
2.635565607e-08
2.635557941e-08
2.635550319e-08
2.635542735e-08
2.635535199e-08
2.635527709e-08
2.635520271e-08
2.635512879e-08
2.635505545e-08
2.635498267e-08
2.63549105e-08
2.635483894e-08
2.635476804e-08
2.63546978e-08
2.635462825e-08
2.635455939e-08
2.635449127e-08
2.635442388e-08
2.635435726e-08
2.635429141e-08
2.635422635e-08
2.635416209e-08
2.635409864e-08
2.635403603e-08
2.635397425e-08
2.635391333e-08
2.635385327e-08
2.635379407e-08
2.635373576e-08
2.635367833e-08
2.635362173e-08
2.635356604e-08
2.635351124e-08
2.635345736e-08
2.635340437e-08
2.63533523e-08
2.635330112e-08
2.635325086e-08
2.63532015e-08
2.635315304e-08
2.635310547e-08
2.63530588e-08
2.635301301e-08
2.635296811e-08
2.635292406e-08
2.63528809e-08
2.635283858e-08
2.635279711e-08
2.635275647e-08
2.635271666e-08
2.635267765e-08
2.635263945e-08
2.635260202e-08
2.635256538e-08
2.635252946e-08
2.635249431e-08
2.635245985e-08
2.635242611e-08
2.635239303e-08
2.635236063e-08
2.635232885e-08
2.635229771e-08
2.635226711e-08
2.635223711e-08
2.635220763e-08
2.63521787e-08
2.635215025e-08
2.63521223e-08
2.635209476e-08
2.635206766e-08
2.635204092e-08
2.635201456e-08
2.63519885e-08
2.635196277e-08
2.635193728e-08
2.635191205e-08
2.635188699e-08
2.635186214e-08
2.635183739e-08
2.635181278e-08
2.635178821e-08
2.635176371e-08
2.63517392e-08
2.635171468e-08
2.635169007e-08
2.63516654e-08
2.635164058e-08
2.635161562e-08
2.635159045e-08
2.635156507e-08
2.635153941e-08
2.635151349e-08
2.635148721e-08
2.635146061e-08
2.635143359e-08
2.635140618e-08
2.635137829e-08
2.635134994e-08
2.63513211e-08
2.635129175e-08
2.63512618e-08
2.635123129e-08
2.635120013e-08
2.635116836e-08
2.635113589e-08
2.635110276e-08
2.635106889e-08
2.635103431e-08
2.635099896e-08
2.635096286e-08
2.635092595e-08
2.635088826e-08
2.635084972e-08
2.635081038e-08
2.635077016e-08
2.635072911e-08
2.635068717e-08
2.635064438e-08
2.635060068e-08
2.635055611e-08
2.635051063e-08
2.635046428e-08
2.6350417e-08
2.635036885e-08
2.635031978e-08
2.635026983e-08
2.635021898e-08
2.635016726e-08
2.635011464e-08
2.635006117e-08
2.635000681e-08
2.634995163e-08
2.634989558e-08
2.634983873e-08
2.634978101e-08
2.634972251e-08
2.634966321e-08
2.634960317e-08
2.634954238e-08
2.63494809e-08
2.63494187e-08
2.634935587e-08
2.634929239e-08
2.634922832e-08
2.634916364e-08
2.634909845e-08
2.634903271e-08
2.634896651e-08
2.634889984e-08
2.634883277e-08
2.63487653e-08
2.63486975e-08
2.634862936e-08
2.634856097e-08
2.634849232e-08
2.63484235e-08
2.634835449e-08
2.634828538e-08
2.634821616e-08
2.634814692e-08
2.634807766e-08
2.634800845e-08
2.63479393e-08
2.634787029e-08
2.634780141e-08
2.634773276e-08
2.634766432e-08
2.634759618e-08
2.634752834e-08
2.634746088e-08
2.63473938e-08
2.634732717e-08
2.634726101e-08
2.634719538e-08
2.634713029e-08
2.63470658e-08
2.634700194e-08
2.634693875e-08
2.634687625e-08
2.63468145e-08
2.634675351e-08
2.634669334e-08
2.634663399e-08
2.634657552e-08
2.634651795e-08
2.634646131e-08
2.634640563e-08
2.634635094e-08
2.634629726e-08
2.634624463e-08
2.634619305e-08
2.634614257e-08
2.634609319e-08
2.634604496e-08
2.634599786e-08
2.634595195e-08
2.634590722e-08
2.63458637e-08
2.634582139e-08
2.634578032e-08
2.634574049e-08
2.634570192e-08
2.634566461e-08
2.634562858e-08
2.634559382e-08
2.634556036e-08
2.634552818e-08
2.63454973e-08
2.63454677e-08
2.634543941e-08
2.63454124e-08
2.634538669e-08
2.634536225e-08
2.63453391e-08
2.634531722e-08
2.634529661e-08
2.634527724e-08
2.634525913e-08
2.634524224e-08
2.634522657e-08
2.63452121e-08
2.634519882e-08
2.634518671e-08
2.634517575e-08
2.634516593e-08
2.634515721e-08
2.634514958e-08
2.634514303e-08
2.634513754e-08
2.634513306e-08
2.634512959e-08
2.634512709e-08
2.634512553e-08
2.63451249e-08
2.634512517e-08
2.63451263e-08
2.634512827e-08
2.634513106e-08
2.634513463e-08
2.634513896e-08
2.6345144e-08
2.634514955e-08
2.634515577e-08
2.634516259e-08
2.634517001e-08
2.634517797e-08
2.634518646e-08
2.634519543e-08
2.634520487e-08
2.634521471e-08
2.634522494e-08
2.634523551e-08
2.63452464e-08
2.634525756e-08
2.634526899e-08
2.634528062e-08
2.634529245e-08
2.63453044e-08
2.634531644e-08
2.634532847e-08
2.634534045e-08
2.634535224e-08
2.634536377e-08
2.634537484e-08
2.634538933e-08
2.634540426e-08
2.634541963e-08
2.634543536e-08
2.634545147e-08
2.634546787e-08
2.634548457e-08
2.634550148e-08
2.634551862e-08
2.634553591e-08
2.634555334e-08
2.634557083e-08
2.634558838e-08
2.634560591e-08
2.63456234e-08
2.634564077e-08
2.634565803e-08
2.634567507e-08
2.634569191e-08
2.634570844e-08
2.634572468e-08
2.634574054e-08
2.634575603e-08
2.634577105e-08
2.63457856e-08
2.634579958e-08
2.634581301e-08
2.634582577e-08
2.63458379e-08
2.634584926e-08
2.634585988e-08
2.634586964e-08
2.634587858e-08
2.634588656e-08
2.634589363e-08
2.634589966e-08
2.634590472e-08
2.63459086e-08
2.634591136e-08
2.634591277e-08
2.634591299e-08
2.63459119e-08
2.634590952e-08
2.634590572e-08
2.634590053e-08
2.634589381e-08
2.63458856e-08
2.634587576e-08
2.634586434e-08
2.634585118e-08
2.634583633e-08
2.634581965e-08
2.634580118e-08
2.634578077e-08
2.634575848e-08
2.634573416e-08
2.634570787e-08
2.634567945e-08
2.634564895e-08
2.634561622e-08
2.634558131e-08
2.634554406e-08
2.634550452e-08
2.634546254e-08
2.634541817e-08
2.634537125e-08
2.634532184e-08
2.634526978e-08
2.634521514e-08
2.634515778e-08
2.634509773e-08
2.634503486e-08
2.634496923e-08
2.634490069e-08
2.634482935e-08
2.634475509e-08
2.634467802e-08
2.634459805e-08
2.634451536e-08
2.634442988e-08
2.634434181e-08
2.634425122e-08
2.634415841e-08
2.634406344e-08
2.634396667e-08
2.634386853e-08
)
;

boundaryField
{
    inlet
    {
        type            calculated;
        value           uniform -2.452231327e-08;
    }
    outlet
    {
        type            calculated;
        value           uniform 2.634376963e-08;
    }
    upperWall
    {
        type            empty;
        value           nonuniform List<scalar> 0();
    }
    lowerWall
    {
        type            empty;
        value           nonuniform List<scalar> 0();
    }
    frontAndBack
    {
        type            empty;
        value           nonuniform List<scalar> 0();
    }
}


// ************************************************************************* //
