/*--------------------------------*- C++ -*----------------------------------*\
  =========                 |
  \\      /  F ield         | OpenFOAM: The Open Source CFD Toolbox
   \\    /   O peration     | Website:  https://openfoam.org
    \\  /    A nd           | Version:  9
     \\/     M anipulation  |
\*---------------------------------------------------------------------------*/
FoamFile
{
    format      ascii;
    class       volScalarField;
    location    "0.019";
    object      rho;
}
// * * * * * * * * * * * * * * * * * * * * * * * * * * * * * * * * * * * * * //

dimensions      [1 -3 0 0 0 0 0];

internalField   nonuniform List<scalar> 
1000
(
0.9888926724
0.9888926724
0.9888926724
0.9888926724
0.9888926724
0.9888926724
0.9888926724
0.9888926724
0.9888926724
0.9888926724
0.9888926724
0.9888926724
0.9888926724
0.9888926724
0.9888926724
0.9888926724
0.9888926724
0.9888926724
0.9888926724
0.9888926724
0.9888926724
0.9888926724
0.9888926724
0.9888926724
0.9888926724
0.9888926724
0.9888926724
0.9888926724
0.9888926724
0.9888926724
0.9888926724
0.9888926724
0.9888926724
0.9888926724
0.9888926724
0.9888926724
0.9888926724
0.9888926724
0.9888926724
0.9888926724
0.9888926724
0.9888926724
0.9888926724
0.9888926724
0.9888926724
0.9888926724
0.9888926724
0.9888926724
0.9888926724
0.9888926724
0.9888926724
0.9888926724
0.9888926724
0.9888926724
0.9888926724
0.9888926724
0.9888926724
0.9888926724
0.9888926724
0.9888926724
0.9888926724
0.9888926724
0.9888926724
0.9888926724
0.9888926724
0.9888926724
0.9888926724
0.9888926724
0.9888926724
0.9888926724
0.9888926724
0.9888926724
0.9888926724
0.9888926724
0.9888926724
0.9888926724
0.9888926724
0.9888926724
0.9888926724
0.9888926724
0.9888926724
0.9888926724
0.9888926724
0.9888926724
0.9888926724
0.9888926724
0.9888926724
0.9888926724
0.9888926724
0.9888926724
0.9888926724
0.9888926724
0.9888926724
0.9888926724
0.9888926724
0.9888926724
0.9888926724
0.9888926724
0.9888926724
0.9888926724
0.9888926724
0.9888926724
0.9888926724
0.9888926724
0.9888926724
0.9888926724
0.9888926724
0.9888926724
0.9888926724
0.9888926724
0.9888926724
0.9888926724
0.9888926724
0.9888926724
0.9888926724
0.9888926724
0.9888926724
0.9888926724
0.9888926724
0.9888926724
0.9888926724
0.9888926724
0.9888926724
0.9888926724
0.9888926724
0.9888926724
0.9888926724
0.9888926724
0.9888926724
0.9888926724
0.9888926724
0.9888926724
0.9888926724
0.9888926724
0.9888926724
0.9888926724
0.9888926724
0.9888926724
0.9888926724
0.9888926724
0.9888926724
0.9888926724
0.9888926724
0.9888926724
0.9888926724
0.9888926724
0.9888926724
0.9888926724
0.9888926724
0.9888926724
0.9888926724
0.9888926724
0.9888926724
0.9888926724
0.9888926724
0.9888926724
0.9888926724
0.9888926724
0.9888926724
0.9888926724
0.9888926724
0.9888926724
0.9888926724
0.9888926724
0.9888926724
0.9888926724
0.9888926724
0.9888926724
0.9888926724
0.9888926724
0.9888926724
0.9888926724
0.9888926724
0.9888926724
0.9888926724
0.9888926724
0.9888926724
0.9888926724
0.9888926724
0.9888926724
0.9888926724
0.9888926724
0.9888926724
0.9888926724
0.9888926724
0.9888926724
0.9888926724
0.9888926724
0.9888926724
0.9888926724
0.9888926724
0.9888926724
0.9888926724
0.9888926724
0.9888926724
0.9888926724
0.9888926724
0.9888926724
0.9888926724
0.9888926724
0.9888926724
0.9888926724
0.9888926724
0.9888926724
0.9888926724
0.9888926724
0.9888926724
0.9888926724
0.9888926724
0.9888926724
0.9888926724
0.9888926724
0.9888926724
0.9888926724
0.9888926724
0.9888926724
0.9888926724
0.9888926724
0.9888926724
0.9888926724
0.9888926724
0.9888926724
0.9888926724
0.9888926724
0.9888926724
0.9888926724
0.9888926724
0.9888926724
0.9888926724
0.9888926724
0.9888926724
0.9888926724
0.9888926724
0.9888926724
0.9888926724
0.9888926724
0.9888926724
0.9888926724
0.9888926724
0.9888926724
0.9888926724
0.9888926724
0.9888926724
0.9888926724
0.9888926724
0.9888926724
0.9888926724
0.9888926724
0.9888926724
0.9888926724
0.9888926724
0.9888926724
0.9888926724
0.9888926724
0.9888926724
0.9888926724
0.9888926724
0.9888926724
0.9888926724
0.9888926724
0.9888926724
0.9888926724
0.9888926724
0.9888926724
0.9888926724
0.9888926724
0.9888926724
0.9888926724
0.9888926724
0.9888926724
0.9888926724
0.9888926724
0.9888926724
0.9888926724
0.9888926724
0.9888926724
0.9888926724
0.9888926724
0.9888926724
0.9888926724
0.9888926724
0.9888926724
0.9888926724
0.9888926724
0.9888926724
0.9888926724
0.9888926724
0.9888926724
0.9888926724
0.9888926724
0.9888926724
0.9888926724
0.9888926724
0.9888926724
0.9888926724
0.9888926724
0.9888926724
0.9888926724
0.9888926724
0.9888926724
0.9888926724
0.9888926724
0.9888926724
0.9888926724
0.9888926724
0.9888926724
0.9888926724
0.9888926724
0.9888926724
0.9888926724
0.9888926724
0.9888926724
0.9888926724
0.9888926724
0.9888926724
0.9888926724
0.9888926724
0.9888926724
0.9888926724
0.9888926724
0.9888926724
0.9888926724
0.9888926724
0.9888926724
0.9888926724
0.9888926724
0.9888926724
0.9888926724
0.9888926724
0.9888926724
0.9888926724
0.9888926724
0.9888926724
0.9888926724
0.9888926724
0.9888926724
0.9888926724
0.9888926724
0.9888926724
0.9888926724
0.9888926724
0.9888926724
0.9888926724
0.9888926724
0.9888926724
0.9888926724
0.9888926724
0.9888926724
0.9888926724
0.9888926724
0.9888926724
0.9888926724
0.9888926724
0.9888926724
0.9888926724
0.9888926724
0.9888926724
0.9888926724
0.9888926724
0.9888926724
0.9888926724
0.9888926724
0.9888926724
0.9888926724
0.9888926724
0.9888926724
0.9888926724
0.9888926724
0.9888926724
0.9888926724
0.9888926724
0.9888926724
0.9888926724
0.9888926724
0.9888926724
0.9888926724
0.9888926724
0.9888926724
0.9888926724
0.9888926724
0.9888926724
0.9888926724
0.9888926724
0.9888926724
0.9888926724
0.9888926724
0.9888926724
0.9888926724
0.9888926724
0.9888926724
0.9888926724
0.9888926724
0.9888926724
0.9888926724
0.9888926724
0.9888926724
0.9888926724
0.9888926725
0.9888926725
0.9888926725
0.9888926725
0.9888926725
0.9888926725
0.9888926725
0.9888926725
0.9888926725
0.9888926726
0.9888926726
0.9888926727
0.9888926728
0.9888926729
0.9888926731
0.9888926733
0.9888926736
0.988892674
0.9888926746
0.9888926754
0.9888926764
0.9888926779
0.9888926798
0.9888926824
0.988892686
0.9888926908
0.9888926973
0.9888927061
0.9888927181
0.9888927343
0.9888927563
0.9888927861
0.9888928265
0.9888928812
0.9888929554
0.988893056
0.9888931923
0.9888933771
0.9888936275
0.988893967
0.9888944271
0.9888950506
0.9888958958
0.9888970413
0.9888985939
0.9889006982
0.9889035504
0.988907416
0.9889126552
0.988919756
0.9889293799
0.9889424231
0.9889601001
0.9889840564
0.9890165215
0.989060515
0.9891201258
0.989200887
0.9893102777
0.9894583879
0.9896587787
0.9899295525
0.9902969783
0.9907907104
0.9914492759
0.9923173152
0.9934366154
0.9948276623
0.9963976679
0.9977935225
0.9979463572
0.9941918285
0.9805854636
0.9461710669
0.877639126
0.7747174042
0.6437015439
0.5156350793
0.4177130054
0.3514167372
0.3072499278
0.2773243124
0.2567748596
0.2425153584
0.2324945092
0.2253255137
0.2200262354
0.2160032847
0.2129041156
0.2104844018
0.2085645514
0.2070164934
0.2057508911
0.2047039024
0.2038286107
0.2030916129
0.2024641895
0.2019286053
0.2014660064
0.2010655514
0.2007154935
0.2004080325
0.2001372324
0.1998971421
0.1996832103
0.1994917943
0.1993198202
0.1991646771
0.1990241486
0.1988963628
0.1987797367
0.1986730073
0.1985751819
0.1984850436
0.1984017374
0.1983245774
0.1982532291
0.1981867797
0.198124825
0.1980672351
0.1980132595
0.1979628586
0.1979156153
0.1978712899
0.1978297548
0.1977906642
0.1977539945
0.1977194255
0.1976869278
0.1976562919
0.1976273912
0.1976001934
0.1975743952
0.1975501752
0.1975271706
0.1975054098
0.1974848337
0.1974652426
0.197446718
0.1974291024
0.1974122788
0.1973963238
0.1973810915
0.1973664933
0.1973525729
0.1973392633
0.1973264604
0.1973141413
0.1973023745
0.1972910144
0.1972800356
0.1972694433
0.1972592574
0.1972493838
0.1972398058
0.197230516
0.1972215715
0.1972128767
0.1972044208
0.1971961936
0.1971882179
0.1971804912
0.1971729654
0.1971656345
0.1971584922
0.1971515499
0.1971448298
0.197138279
0.1971318933
0.1971256682
0.1971195983
0.1971137026
0.1971079755
0.1971023881
0.1970969368
0.1970916174
0.1970864253
0.1970813567
0.1970764458
0.197071647
0.1970669567
0.1970623712
0.1970578864
0.1970534981
0.1970492015
0.1970450201
0.1970409302
0.1970369196
0.1970329853
0.197029124
0.1970253326
0.1970216078
0.1970179462
0.1970143603
0.1970108435
0.1970073809
0.1970039706
0.1970006108
0.1969972995
0.196994035
0.1969908154
0.1969876387
0.1969845076
0.1969814319
0.196978394
0.1969753931
0.1969724285
0.1969694995
0.1969666054
0.1969637453
0.1969609186
0.1969581244
0.1969553617
0.1969526373
0.1969499517
0.1969472952
0.1969446677
0.196942069
0.1969394988
0.1969369569
0.1969344429
0.1969319565
0.1969294973
0.1969270648
0.1969246584
0.1969222776
0.1969199334
0.196917615
0.1969153207
0.1969130505
0.1969108042
0.1969085818
0.1969063831
0.196904208
0.1969020563
0.1968999278
0.1968978222
0.1968957395
0.1968936791
0.1968916409
0.1968896243
0.1968876393
0.1968856753
0.1968837323
0.1968818104
0.1968799096
0.1968780299
0.1968761713
0.1968743339
0.1968725177
0.1968707227
0.1968689489
0.1968671963
0.1968654649
0.1968637546
0.1968620654
0.1968603971
0.1968587496
0.1968571226
0.1968555223
0.1968539437
0.1968523855
0.1968508477
0.1968493304
0.1968478337
0.1968463574
0.1968449018
0.1968434667
0.1968420522
0.1968406584
0.196839285
0.1968379322
0.1968365999
0.1968352881
0.1968339966
0.1968327253
0.1968314743
0.1968302433
0.1968290321
0.1968278407
0.1968266687
0.196825516
0.1968243844
0.1968232746
0.1968221833
0.1968211104
0.1968200557
0.1968190191
0.1968180004
0.1968169995
0.1968160163
0.1968150504
0.1968141019
0.1968131704
0.1968122559
0.196811358
0.1968104765
0.1968096113
0.196808762
0.1968079285
0.1968071105
0.1968063077
0.1968055199
0.1968047467
0.1968039879
0.1968032431
0.196802512
0.1968017944
0.1968010897
0.1968003977
0.196799718
0.1967990502
0.1967983937
0.1967977482
0.1967971168
0.1967964955
0.1967958839
0.1967952816
0.1967946881
0.1967941031
0.1967935264
0.1967929572
0.1967923954
0.1967918404
0.196791292
0.1967907497
0.196790213
0.1967896816
0.196789155
0.1967886328
0.1967881146
0.1967876
0.1967870885
0.1967865797
0.1967860731
0.1967855685
0.1967850652
0.196784563
0.1967840614
0.1967835599
0.1967830581
0.1967825557
0.1967820522
0.1967815472
0.1967810402
0.1967805308
0.1967800187
0.1967795033
0.1967789843
0.1967784613
0.196777935
0.1967774059
0.1967768716
0.1967763317
0.196775786
0.1967752343
0.1967746762
0.1967741115
0.19677354
0.1967729616
0.1967723759
0.1967717828
0.1967711821
0.1967705736
0.1967699573
0.1967693329
0.1967687004
0.1967680597
0.1967674106
0.1967667531
0.1967660872
0.1967654128
0.1967647299
0.1967640384
0.1967633385
0.19676263
0.1967619131
0.1967611878
0.196760454
0.196759712
0.1967589618
0.1967582035
0.1967574372
0.1967566629
0.1967558809
0.1967550911
0.1967542938
0.1967534875
0.1967526739
0.1967518535
0.1967510264
0.1967501931
0.1967493537
0.1967485086
0.1967476582
0.1967468027
0.1967459426
0.1967450782
0.1967442098
0.1967433378
0.1967424627
0.1967415848
0.1967407045
0.1967398222
0.1967389384
0.1967380534
0.1967371677
0.1967362818
0.196735396
0.1967345108
0.1967336266
0.1967327439
0.1967318631
0.1967309847
0.196730109
0.1967292366
0.1967283679
0.1967275033
0.1967266432
0.1967257881
0.1967249385
0.1967240946
0.196723257
0.1967224262
0.1967216023
0.196720786
0.1967199775
0.1967191774
0.1967183858
0.1967176033
0.1967168302
0.1967160668
0.1967153134
0.1967145705
0.1967138383
0.1967131172
0.1967124074
0.1967117092
0.1967110229
0.1967103488
0.1967096872
0.1967090381
0.196708402
0.1967077789
0.1967071692
0.1967065729
0.1967059902
0.1967054214
0.1967048665
0.1967043256
0.1967037989
0.1967032865
0.1967027884
0.1967023047
0.1967018355
0.1967013808
0.1967009407
0.196700515
0.1967001039
0.1966997073
0.1966993251
0.1966989573
0.1966986039
0.1966982647
0.1966979397
0.1966976288
0.1966973318
0.1966970485
0.1966967789
0.1966965228
0.19669628
0.1966960503
0.1966958335
0.1966956293
0.1966954377
0.1966952582
0.1966950907
0.196694935
0.1966947907
0.1966946575
0.1966945352
0.1966944235
0.196694322
0.1966942305
0.1966941486
0.196694076
0.1966940124
0.1966939574
0.1966939107
0.1966938718
0.1966938408
0.1966938167
0.1966937996
0.196693788
0.1966937819
0.196693782
0.1966937877
0.1966937988
0.1966938149
0.1966938358
0.1966938612
0.1966938911
0.1966939252
0.1966939634
0.1966940057
0.1966940521
0.1966941028
0.1966941581
0.1966942183
0.196694284
0.1966943562
0.196694436
0.1966945251
0.1966946258
0.1966947413
0.1966948757
0.1966950699
0.1966952877
0.1966955076
0.1966957292
0.1966959522
0.1966961761
0.1966964005
0.196696625
0.1966968489
0.1966970722
0.1966972943
0.1966975146
0.1966977327
0.1966979481
0.1966981604
0.1966983692
0.1966985738
0.196698774
0.1966989691
0.1966991587
0.1966993423
0.1966995195
0.1966996897
0.1966998525
0.1967000073
0.1967001538
0.1967002912
0.1967004193
0.1967005374
0.1967006451
0.1967007418
0.1967008271
0.1967009005
0.1967009614
0.1967010093
0.1967010437
0.1967010641
0.1967010697
0.1967010612
0.196701036
0.1967009941
0.1967009356
0.19670086
0.1967007666
0.1967006551
0.1967005248
0.1967003752
0.1967002058
0.196700016
0.1966998055
0.1966995735
0.1966993197
0.1966990435
0.1966987444
0.1966984219
0.1966980756
0.196697705
0.1966973095
0.1966968889
0.1966964427
0.1966959706
0.1966954722
0.1966949474
0.1966943958
0.1966938176
0.1966932126
0.1966925811
0.1966919233
0.1966912397
0.1966905312
0.1966897987
0.1966890437
0.196688268
0.196687474
0.1966866648
0.1966858442
0.196685017
0.1966841892
0.1966833683
0.1966825633
0.1966817856
0.196681049
0.1966803703
0.19667977
0.1966792731
0.1966789096
0.1966787159
)
;

boundaryField
{
    inlet
    {
        type            calculated;
        value           uniform 0.9888926724;
    }
    outlet
    {
        type            calculated;
        value           uniform 0.1966787159;
    }
    upperWall
    {
        type            empty;
    }
    lowerWall
    {
        type            empty;
    }
    frontAndBack
    {
        type            empty;
    }
}


// ************************************************************************* //
