/*--------------------------------*- C++ -*----------------------------------*\
  =========                 |
  \\      /  F ield         | OpenFOAM: The Open Source CFD Toolbox
   \\    /   O peration     | Website:  https://openfoam.org
    \\  /    A nd           | Version:  9
     \\/     M anipulation  |
\*---------------------------------------------------------------------------*/
FoamFile
{
    format      ascii;
    class       volScalarField;
    location    "0.019";
    object      sourceYc;
}
// * * * * * * * * * * * * * * * * * * * * * * * * * * * * * * * * * * * * * //

dimensions      [1 -3 -1 0 0 0 0];

internalField   nonuniform List<scalar> 
1000
(
0
0
0
0
0
0
0
0
0
0
0
0
0
0
0
0
0
0
0
0
0
0
0
0
0
0
0
0
0
0
0
0
0
0
0
0
0
0
0
0
0
0
0
0
0
0
0
0
0
0
0
0
0
0
0
0
0
0
0
0
0
0
0
0
0
0
0
0
0
0
0
0
0
0
0
0
0
0
0
0
0
0
0
0
0
0
0
0
0
0
0
0
0
0
0
0
0
0
0
0
0
0
0
0
0
0
0
0
0
0
0
0
0
0
0
0
0
0
0
0
0
0
0
0
0
0
0
0
0
0
0
0
0
0
0
0
0
0
0
0
0
0
0
0
0
0
0
0
0
0
0
0
0
0
0
0
0
0
0
0
0
0
0
0
0
0
0
0
0
0
0
0
0
0
0
0
0
0
0
0
0
0
0
0
0
0
0
0
0
0
0
0
0
0
0
0
0
0
0
0
0
0
0
0
0
0
0
0
0
0
0
0
0
0
0
0
0
0
0
0
0
0
0
0
0
0
0
0
0
0
0
0
0
0
0
0
0
0
0
0
0
0
0
0
0
0
0
0
0
0
0
0
0
0
0
0
0
0
0
0
0
0
0
0
0
0
0
0
0
0
0
0
0
0
0
0
0
0
0
0
0
0
0
0
0
0
0
0
0
0
0
0
0
0
0
0
0
0
0
0
0
0
0
0
0
0
0
0
0
0
0
0
0
0
0
0
0
0
0
0
0
0
0
0
0
0
0
0
0
0
0
0
0
0
0
0
0
0
0
0
0
0
0
0
0
0
0
0
0
0
0
0
0
0
0
0
0
0
0
0
0
0
0
0
0
0
0
0
0
0
0
0
0
0
0
0
0
0
0
0
0
0
0
0
0
0
0
0
0
0
0
0
0
0
0
0
0
0
0
0
0
0
0
0
0
0
0
0
0
0
0
0
0
0
0
0
0
0
0
0
0
0
0
0
0
0
0
0
0
0
0
0
0
0
0
0
0
0
0
0
0
0
0
0
0
0
0
0
0
0
0
0
0
0
0
0
0
0
0
0.0001128154499
0.0002715398367
0.0006254847453
0.001388721904
0.002964856142
0.006172743891
0.01202201836
0.02206855564
0.03596658042
0.05028583666
0.05675616267
0.04717847709
0.09068177748
0.611352868
6.169625223
35.56677112
84.61938899
132.5009934
183.6360404
224.3199602
226.2525678
190.6378585
140.982423
96.48457304
63.51967631
42.28046593
29.0057179
20.77271043
15.49604194
11.99313445
9.570233627
7.824240463
6.517167175
5.515834285
4.716434721
4.075039113
3.54397737
3.105368893
2.73473949
2.420132145
2.152653464
1.922654489
1.72370567
1.550909642
1.400198319
1.268225503
1.152226846
1.049856861
0.9591366686
0.8786428565
0.8073959602
0.7435398393
0.6860671919
0.6342647638
0.5882250787
0.546256058
0.5080131433
0.4738371061
0.4422707407
0.4137628214
0.3876151331
0.3635949348
0.3417093282
0.3213712972
0.3028672295
0.2856085191
0.2697911528
0.2551004719
0.2414129601
0.2288647593
0.2168712213
0.2061410376
0.1958679391
0.1863246879
0.1775295419
0.1690922738
0.1613794033
0.1541216908
0.1471474355
0.1408099128
0.1348267493
0.1290692429
0.1237494834
0.1187901308
0.114010862
0.1094342076
0.1053175375
0.1013445657
0.0975090328
0.09388681801
0.09058881648
0.08740020605
0.08431627813
0.08135396765
0.07869031878
0.07611057101
0.07361071444
0.07118714412
0.06892410688
0.06683454949
0.0648056626
0.06283503446
0.06092010775
0.05909954921
0.05743475976
0.05581453133
0.05423718563
0.05270095737
0.05120400222
0.04981129004
0.0485186889
0.04725737594
0.04602631411
0.04482441089
0.0436505271
0.04250645475
0.04148505386
0.04048618459
0.03950925357
0.03855362748
0.03761864105
0.03670359177
0.0358077254
0.03499354125
0.03421532543
0.03345288208
0.03270584381
0.03197382705
0.03125642957
0.03055321786
0.02986371929
0.02922451986
0.02862603601
0.02803888388
0.02746284735
0.02689769968
0.02634319758
0.02579908151
0.02526506716
0.02474084287
0.02423802045
0.02378525433
0.02334049086
0.02290359453
0.02247442034
0.02205281634
0.0216386203
0.0212316607
0.02083175192
0.02043869325
0.02005226254
0.01969089755
0.01935712948
0.01902878531
0.018705772
0.01838799504
0.01807535697
0.01776775814
0.01746509485
0.01716725926
0.016874137
0.01658560604
0.01630153352
0.01602177373
0.01577435223
0.01553384039
0.01529688821
0.01506344868
0.01483347459
0.01460691876
0.01438373338
0.0141638699
0.01394727819
0.01373390599
0.01352369783
0.01331659385
0.0131125283
0.01291142749
0.01271335632
0.01254070481
0.0123704827
0.0122026675
0.01203723665
0.011874167
0.01171343505
0.01155501636
0.01139888582
0.01124501675
0.01109338124
0.01094394908
0.01079668785
0.01065156141
0.01050852973
0.01036754681
0.01022855973
0.01009150537
0.009956308227
0.009836184616
0.009720517989
0.009606478882
0.009494046995
0.009383201211
0.009273920714
0.009166183781
0.009059969027
0.008955254247
0.008852017612
0.008750236338
0.008649887986
0.008550949175
0.008453396805
0.00835720656
0.0082623542
0.008168814072
0.008076560241
0.007985564719
0.007895798541
0.007807229871
0.007719824695
0.00763354441
0.007552651896
0.007479116213
0.007406477521
0.007334718351
0.007263821786
0.007193770265
0.007124546773
0.007056133559
0.006988513388
0.006921668382
0.00685558117
0.006790233663
0.006725608252
0.0066616867
0.006598451236
0.006535883393
0.006473965133
0.006412677794
0.006352003113
0.006291922124
0.006232416187
0.006173465994
0.006115052463
0.006057155715
0.005999755922
0.005942832356
0.005886364075
0.005830328893
0.00577470394
0.00571946462
0.005664584861
0.00561003588
0.005562616895
0.005515663463
0.005468940783
0.005422434562
0.005376130222
0.00533001047
0.005284099423
0.005238310937
0.005192670571
0.005147171961
0.005101803666
0.005056554574
0.005011413981
0.004966371592
0.004921417508
0.00487654233
0.00483173704
0.004786993154
0.004742302524
0.004697657623
0.004653051222
0.004608476708
0.004563927694
0.004519398478
0.004474883509
0.004430377859
0.004385876632
0.004341375571
0.004296870305
0.004252356946
0.004207831259
0.004163289393
0.004118726853
0.004074139159
0.004029520729
0.003984865607
0.003942468875
0.003903738335
0.003864970912
0.003826171398
0.003787344856
0.003748497826
0.003709636671
0.003670761539
0.003631871571
0.003593031291
0.003554207315
0.003515408316
0.0034766431
0.00343792154
0.003399253358
0.003360649321
0.003322119973
0.003283676772
0.003245330884
0.003207094433
0.003168979204
0.003130997792
0.003093162371
0.003055485941
0.003017981013
0.002980660744
0.002943537697
0.002906625048
0.002869935278
0.00283348125
0.002797274974
0.002761328738
0.002725653799
0.002690261367
0.002655161374
0.002620363463
0.002585875703
0.002556586436
0.002527665062
0.002499042463
0.002470731497
0.002442745217
0.002415096091
0.002387796751
0.002360859222
0.002334295573
0.00230811725
0.002282335701
0.002256961743
0.002232006087
0.002207478806
0.00218338982
0.002159748411
0.002136563612
0.002113843822
0.002091597137
0.002069831025
0.002048552574
0.002027768259
0.002007484113
0.001987705569
0.001968437561
0.001949684449
0.001931450025
0.001913737528
0.001896549594
0.001879888339
0.001863755204
0.001848151141
0.001833076408
0.001818530819
0.001804513418
0.001791022841
0.001778056959
0.001765613285
0.001753688492
0.001742278935
0.001731380153
0.001720987423
0.001711095133
0.001701697451
0.001692787698
0.001684359039
0.001676403718
0.001668913868
0.00166188076
0.001655295618
0.001649148735
0.001643430402
0.001638130052
0.001633237184
0.001628740371
0.001624628295
0.0016208888
0.001617509906
0.001614478727
0.001611782596
0.00160940804
0.001607341866
0.001605570017
0.00160407875
0.001602853565
0.001601880338
0.00160114413
0.001600630406
0.001600323935
0.001600209943
0.001600272904
0.001600497777
0.001600868887
0.001601371092
0.001601988567
0.001602706037
0.001603507669
0.001604378219
0.00160530184
0.00160626329
0.001607246846
0.001608237421
0.001609219411
0.001610177859
0.001611097412
0.001611963389
0.00161276069
0.001613474893
0.001614091279
0.001614595828
0.001614974217
0.001615212827
0.001615297858
0.001615216235
0.001614954709
0.001614500768
0.001613841859
0.001612966245
0.001611862282
0.001610519459
0.001608928486
0.001607084201
0.001604936229
0.001602573946
0.001599851862
0.001596832201
0.001593448005
0.001589722082
0.001585699141
0.001581368078
0.001576727851
0.001571779214
0.001566524797
0.001560969808
0.001555122163
0.001548993248
0.001542598245
0.001535957086
0.00152909519
0.001522044798
0.001514846379
0.00150755081
0.001500222449
0.001492943147
0.001485818511
0.00147898595
0.001472627242
0.001466983674
0.001462378277
0
0
0
0
0
0
0
0
0
0
0
0
0
0
0
0
0
0
0
0
0
0
0
0
0
0
0
0
0
0
0
0
0
0
0
0
0
0
0
0
0
0
0
0
0
0
0
0
0
0
0
0
0
0
0
0
0
0
0
0
0
0
0
0
0
0
0
0
0
0
0
0
0
0
0
0
0
0
0
0
0
0
0
0
0
0
0
)
;

boundaryField
{
    inlet
    {
        type            calculated;
        value           uniform 0;
    }
    outlet
    {
        type            calculated;
        value           uniform 0;
    }
    upperWall
    {
        type            empty;
    }
    lowerWall
    {
        type            empty;
    }
    frontAndBack
    {
        type            empty;
    }
}


// ************************************************************************* //
