/*--------------------------------*- C++ -*----------------------------------*\
  =========                 |
  \\      /  F ield         | OpenFOAM: The Open Source CFD Toolbox
   \\    /   O peration     | Website:  https://openfoam.org
    \\  /    A nd           | Version:  9
     \\/     M anipulation  |
\*---------------------------------------------------------------------------*/
FoamFile
{
    format      ascii;
    class       volScalarField;
    location    "0.019";
    object      sourceNO;
}
// * * * * * * * * * * * * * * * * * * * * * * * * * * * * * * * * * * * * * //

dimensions      [1 -3 -1 0 0 0 0];

internalField   nonuniform List<scalar> 
1000
(
2.577749959e-10
2.577749959e-10
2.577749959e-10
2.577749959e-10
2.577749959e-10
2.577749959e-10
2.577749959e-10
2.577749959e-10
2.577749959e-10
2.577749959e-10
2.577749959e-10
2.577749959e-10
2.577749959e-10
2.577749959e-10
2.577749959e-10
2.577749959e-10
2.577749959e-10
2.577749959e-10
2.577749959e-10
2.577749959e-10
2.577749959e-10
2.577749959e-10
2.577749959e-10
2.577749959e-10
2.577749959e-10
2.577749959e-10
2.577749959e-10
2.577749959e-10
2.577749959e-10
2.577749959e-10
2.577749959e-10
2.577749959e-10
2.577749959e-10
2.577749959e-10
2.577749959e-10
2.577749959e-10
2.577749959e-10
2.577749959e-10
2.577749959e-10
2.577749959e-10
2.577749959e-10
2.577749959e-10
2.577749959e-10
2.577749959e-10
2.577749959e-10
2.577749959e-10
2.577749959e-10
2.577749959e-10
2.577749959e-10
2.577749959e-10
2.577749959e-10
2.577749959e-10
2.577749959e-10
2.577749959e-10
2.577749959e-10
2.577749959e-10
2.577749959e-10
2.577749959e-10
2.577749959e-10
2.577749959e-10
2.577749959e-10
2.577749959e-10
2.577749959e-10
2.577749959e-10
2.577749959e-10
2.577749959e-10
2.577749959e-10
2.577749959e-10
2.577749959e-10
2.577749959e-10
2.577749959e-10
2.577749959e-10
2.577749959e-10
2.577749959e-10
2.577749959e-10
2.577749959e-10
2.577749959e-10
2.577749959e-10
2.577749959e-10
2.577749959e-10
2.577749959e-10
2.577749959e-10
2.577749959e-10
2.577749959e-10
2.577749959e-10
2.577749959e-10
2.577749959e-10
2.577749959e-10
2.577749959e-10
2.577749959e-10
2.577749959e-10
2.577749959e-10
2.577749959e-10
2.577749959e-10
2.577749959e-10
2.577749959e-10
2.577749959e-10
2.577749959e-10
2.577749959e-10
2.577749959e-10
2.577749959e-10
2.577749959e-10
2.577749959e-10
2.577749959e-10
2.577749959e-10
2.577749959e-10
2.577749959e-10
2.577749959e-10
2.577749959e-10
2.577749959e-10
2.577749959e-10
2.577749959e-10
2.577749959e-10
2.577749959e-10
2.577749959e-10
2.577749959e-10
2.577749959e-10
2.577749959e-10
2.577749959e-10
2.577749959e-10
2.577749959e-10
2.577749959e-10
2.577749959e-10
2.577749959e-10
2.577749959e-10
2.577749959e-10
2.577749959e-10
2.577749959e-10
2.577749959e-10
2.577749959e-10
2.577749959e-10
2.577749959e-10
2.577749959e-10
2.577749959e-10
2.577749959e-10
2.577749959e-10
2.577749959e-10
2.577749959e-10
2.577749959e-10
2.577749959e-10
2.577749959e-10
2.577749959e-10
2.577749959e-10
2.577749959e-10
2.577749959e-10
2.577749959e-10
2.577749959e-10
2.577749959e-10
2.577749959e-10
2.577749959e-10
2.577749959e-10
2.577749959e-10
2.577749959e-10
2.577749959e-10
2.577749959e-10
2.577749959e-10
2.577749959e-10
2.577749959e-10
2.577749959e-10
2.577749959e-10
2.577749959e-10
2.577749959e-10
2.577749959e-10
2.577749959e-10
2.577749959e-10
2.577749959e-10
2.577749959e-10
2.577749959e-10
2.577749959e-10
2.577749959e-10
2.577749959e-10
2.577749959e-10
2.577749959e-10
2.577749959e-10
2.577749959e-10
2.577749959e-10
2.577749959e-10
2.577749959e-10
2.577749959e-10
2.577749959e-10
2.577749959e-10
2.577749959e-10
2.577749959e-10
2.577749959e-10
2.577749959e-10
2.577749959e-10
2.577749959e-10
2.577749959e-10
2.577749959e-10
2.577749959e-10
2.577749959e-10
2.577749959e-10
2.577749959e-10
2.577749959e-10
2.577749959e-10
2.577749959e-10
2.577749959e-10
2.577749959e-10
2.577749959e-10
2.577749959e-10
2.577749959e-10
2.577749959e-10
2.577749959e-10
2.577749959e-10
2.577749959e-10
2.577749959e-10
2.577749959e-10
2.577749959e-10
2.577749959e-10
2.577749959e-10
2.577749959e-10
2.577749959e-10
2.577749959e-10
2.577749959e-10
2.577749959e-10
2.577749959e-10
2.577749959e-10
2.577749959e-10
2.577749959e-10
2.577749959e-10
2.577749959e-10
2.577749959e-10
2.577749959e-10
2.577749959e-10
2.577749959e-10
2.577749959e-10
2.577749959e-10
2.577749959e-10
2.577749959e-10
2.577749959e-10
2.577749959e-10
2.577749959e-10
2.577749959e-10
2.577749959e-10
2.577749959e-10
2.577749959e-10
2.577749959e-10
2.577749959e-10
2.577749959e-10
2.577749959e-10
2.577749959e-10
2.577749959e-10
2.577749959e-10
2.577749959e-10
2.577749959e-10
2.577749959e-10
2.577749959e-10
2.577749959e-10
2.577749959e-10
2.577749959e-10
2.577749959e-10
2.577749959e-10
2.577749959e-10
2.577749959e-10
2.577749959e-10
2.577749959e-10
2.577749959e-10
2.577749959e-10
2.577749959e-10
2.577749959e-10
2.577749959e-10
2.577749959e-10
2.577749959e-10
2.577749959e-10
2.577749959e-10
2.577749959e-10
2.577749959e-10
2.577749959e-10
2.577749959e-10
2.577749959e-10
2.577749959e-10
2.577749959e-10
2.577749959e-10
2.577749959e-10
2.577749959e-10
2.577749959e-10
2.577749959e-10
2.577749959e-10
2.577749959e-10
2.577749959e-10
2.577749959e-10
2.577749959e-10
2.577749959e-10
2.577749959e-10
2.577749959e-10
2.577749959e-10
2.577749959e-10
2.577749959e-10
2.577749959e-10
2.577749959e-10
2.577749959e-10
2.577749959e-10
2.577749959e-10
2.577749959e-10
2.577749959e-10
2.577749959e-10
2.577749959e-10
2.577749959e-10
2.577749959e-10
2.577749959e-10
2.577749959e-10
2.577749959e-10
2.577749959e-10
2.577749959e-10
2.577749959e-10
2.577749959e-10
2.577749959e-10
2.577749959e-10
2.577749959e-10
2.577749959e-10
2.577749959e-10
2.577749959e-10
2.577749959e-10
2.577749959e-10
2.577749959e-10
2.577749959e-10
2.577749959e-10
2.577749959e-10
2.577749959e-10
2.577749959e-10
2.577749959e-10
2.577749959e-10
2.577749959e-10
2.577749959e-10
2.577749959e-10
2.577749959e-10
2.577749959e-10
2.577749959e-10
2.577749959e-10
2.577749959e-10
2.577749959e-10
2.577749959e-10
2.577749959e-10
2.577749959e-10
2.577749959e-10
2.577749959e-10
2.577749959e-10
2.577749959e-10
2.577749959e-10
2.577749959e-10
2.577749959e-10
2.577749959e-10
2.577749959e-10
2.577749959e-10
2.577749959e-10
2.577749959e-10
2.577749959e-10
2.577749959e-10
2.577749959e-10
2.577749959e-10
2.577749959e-10
2.577749959e-10
2.577749959e-10
2.577749959e-10
2.577749959e-10
2.577749959e-10
2.577749959e-10
2.577749959e-10
2.577749959e-10
2.577749959e-10
2.577749959e-10
2.577749959e-10
2.577749959e-10
2.577749959e-10
2.577749959e-10
2.577749959e-10
2.577749959e-10
2.577749959e-10
2.577749959e-10
2.577749959e-10
2.577749959e-10
2.577749959e-10
2.577749959e-10
2.577749959e-10
2.577749959e-10
2.577749959e-10
2.577749959e-10
2.577749959e-10
2.577749959e-10
2.577749959e-10
2.577749959e-10
2.577749959e-10
2.577749959e-10
2.577749959e-10
2.577749959e-10
2.577749959e-10
2.577749959e-10
2.577749959e-10
2.577749959e-10
2.577749959e-10
2.577749959e-10
2.577749958e-10
2.577749958e-10
2.577749958e-10
2.577749958e-10
2.577749958e-10
2.577749958e-10
2.577749957e-10
2.577749957e-10
2.577749956e-10
2.577749955e-10
2.577749953e-10
2.577749952e-10
2.577749949e-10
2.577749946e-10
2.577749941e-10
2.577749935e-10
2.577749926e-10
2.577749914e-10
2.577749899e-10
2.577749877e-10
2.577749848e-10
2.577749809e-10
2.577749756e-10
2.577749683e-10
2.577749585e-10
2.577749453e-10
2.577749273e-10
2.577749029e-10
2.577748698e-10
2.57774825e-10
2.577747642e-10
2.577746818e-10
2.577745701e-10
2.577744188e-10
2.577742136e-10
2.577739354e-10
2.577735584e-10
2.577730474e-10
2.577723548e-10
2.57771416e-10
2.577701435e-10
2.577684187e-10
2.57766081e-10
2.577629124e-10
2.577586178e-10
2.577527969e-10
2.577449075e-10
2.577342143e-10
2.577197211e-10
2.577000775e-10
2.576734533e-10
2.576373679e-10
2.575884595e-10
2.575221714e-10
2.574323283e-10
2.573105612e-10
2.571455279e-10
2.56921858e-10
2.566187225e-10
2.562078959e-10
2.556511315e-10
2.548966041e-10
2.538740917e-10
2.524884469e-10
2.506107523e-10
2.480663392e-10
2.446185595e-10
2.399468109e-10
2.34561442e-10
2.274858658e-10
2.178990686e-10
2.049114039e-10
1.87431517e-10
1.67448942e-10
1.402950663e-10
1.030539711e-10
6.831150704e-11
1.322427553e-10
7.947395217e-11
0
0
0
0
7.752475243e-06
5.977691442e-06
4.470770581e-06
1.351647989e-05
3.971621263e-05
9.186290771e-05
0.0001625451989
0.0002285063019
0.0002705117636
0.0002866613064
0.000278963677
0.0002595009273
0.0002350211116
0.000210015871
0.0001864758922
0.0001652192606
0.0001464436943
0.0001300378632
0.0001158289737
0.0001034798454
9.282399674e-05
8.353358916e-05
7.547392511e-05
6.840801563e-05
6.220014848e-05
5.675406558e-05
5.194418459e-05
4.767910552e-05
4.388673156e-05
4.050492827e-05
3.748024285e-05
3.476671103e-05
3.232468268e-05
3.012005875e-05
2.812719268e-05
2.632762523e-05
2.468890939e-05
2.3191573e-05
2.18211582e-05
2.057715473e-05
1.942953843e-05
1.837038412e-05
1.740407426e-05
1.650362724e-05
1.567543715e-05
1.490618615e-05
1.419048693e-05
1.35279819e-05
1.290676421e-05
1.233136641e-05
1.178998687e-05
1.128590914e-05
1.081246876e-05
1.036704061e-05
9.951902871e-06
9.554835811e-06
9.189779465e-06
8.840066012e-06
8.51098831e-06
8.202624727e-06
7.906674869e-06
7.630876396e-06
7.369153341e-06
7.11756882e-06
6.883526393e-06
6.660817737e-06
6.446459378e-06
6.245150732e-06
6.054984651e-06
5.871699402e-06
5.695698699e-06
5.532849149e-06
5.375680731e-06
5.2239446e-06
5.079323973e-06
4.944324719e-06
4.81381101e-06
4.687585923e-06
4.566010188e-06
4.453444539e-06
4.344436283e-06
4.238806942e-06
4.136403421e-06
4.039254448e-06
3.94762159e-06
3.858650669e-06
3.772232579e-06
3.688254946e-06
3.607728861e-06
3.532286332e-06
3.458861411e-06
3.387375908e-06
3.317749927e-06
3.249900945e-06
3.185510535e-06
3.124438835e-06
3.064843541e-06
3.006673799e-06
2.949877905e-06
2.894402675e-06
2.840279253e-06
2.790150694e-06
2.741128225e-06
2.693180399e-06
2.646275393e-06
2.600380522e-06
2.555461764e-06
2.511483026e-06
2.47026351e-06
2.43045107e-06
2.391444748e-06
2.353225719e-06
2.315774624e-06
2.279071065e-06
2.243093399e-06
2.207818073e-06
2.174347977e-06
2.142383732e-06
2.111026164e-06
2.080263553e-06
2.05008376e-06
2.020473846e-06
1.99142006e-06
1.962907392e-06
1.934919459e-06
1.907818401e-06
1.882508623e-06
1.857648508e-06
1.833230094e-06
1.80924504e-06
1.785684704e-06
1.762539924e-06
1.739801048e-06
1.717457661e-06
1.695498529e-06
1.673911255e-06
1.653320331e-06
1.633807892e-06
1.614613937e-06
1.595732851e-06
1.577158983e-06
1.55888655e-06
1.54090966e-06
1.523222202e-06
1.505817832e-06
1.48868983e-06
1.471831026e-06
1.455233599e-06
1.43888892e-06
1.423775581e-06
1.409000234e-06
1.39444401e-06
1.380103924e-06
1.365977007e-06
1.35206031e-06
1.338350858e-06
1.324845635e-06
1.311541537e-06
1.29843533e-06
1.285523585e-06
1.272802602e-06
1.260268318e-06
1.247916181e-06
1.235746663e-06
1.224609261e-06
1.21362867e-06
1.202803424e-06
1.192132048e-06
1.181613032e-06
1.17124484e-06
1.161025878e-06
1.150954506e-06
1.141028983e-06
1.131247487e-06
1.121608047e-06
1.112108549e-06
1.102746634e-06
1.093519693e-06
1.084424725e-06
1.075458278e-06
1.066616237e-06
1.057893674e-06
1.049828867e-06
1.041989735e-06
1.034260649e-06
1.026640213e-06
1.019126981e-06
1.011719522e-06
1.004416349e-06
9.972159953e-07
9.90116941e-07
9.831176919e-07
9.762166895e-07
9.694123997e-07
9.627032249e-07
9.560875875e-07
9.495638278e-07
9.431302918e-07
9.367852303e-07
9.305268752e-07
9.243533193e-07
9.182625891e-07
9.12252516e-07
9.063207832e-07
9.004647609e-07
8.94870624e-07
8.896239663e-07
8.844406593e-07
8.793194556e-07
8.742591476e-07
8.692584823e-07
8.643162461e-07
8.594311735e-07
8.546020363e-07
8.498275605e-07
8.451065093e-07
8.404375946e-07
8.358195635e-07
8.312511181e-07
8.267309949e-07
8.222578805e-07
8.178304928e-07
8.134475059e-07
8.091076223e-07
8.048094951e-07
8.005518008e-07
7.963331689e-07
7.921522455e-07
7.880076198e-07
7.838978854e-07
7.798215719e-07
7.757771936e-07
7.717631768e-07
7.677778986e-07
7.638196128e-07
7.59886468e-07
7.559764184e-07
7.524141103e-07
7.488802123e-07
7.453631234e-07
7.418617877e-07
7.383751279e-07
7.349018599e-07
7.314438559e-07
7.279945859e-07
7.245560323e-07
7.211277451e-07
7.177088872e-07
7.142986469e-07
7.108962435e-07
7.075009275e-07
7.041119797e-07
7.007287189e-07
6.973504926e-07
6.939766891e-07
6.906067222e-07
6.872400527e-07
6.838761639e-07
6.805145858e-07
6.771548654e-07
6.737966014e-07
6.704394039e-07
6.670829302e-07
6.637268395e-07
6.603708394e-07
6.570146287e-07
6.536579422e-07
6.503004888e-07
6.469420056e-07
6.435821812e-07
6.402207049e-07
6.368571825e-07
6.334911909e-07
6.302442064e-07
6.271907993e-07
6.241348513e-07
6.210767639e-07
6.180169596e-07
6.149559774e-07
6.118943416e-07
6.088320784e-07
6.057691352e-07
6.027106668e-07
5.996540251e-07
5.965999116e-07
5.935490381e-07
5.905021997e-07
5.874601786e-07
5.844238387e-07
5.813940253e-07
5.783716549e-07
5.753576202e-07
5.723528882e-07
5.693583984e-07
5.663751533e-07
5.63404121e-07
5.60446334e-07
5.575027852e-07
5.545745174e-07
5.516625256e-07
5.487678524e-07
5.458914842e-07
5.43034437e-07
5.401976583e-07
5.373821167e-07
5.345886984e-07
5.318182851e-07
5.290716567e-07
5.263495693e-07
5.236526538e-07
5.212901601e-07
5.189568552e-07
5.166486058e-07
5.143664514e-07
5.121114471e-07
5.098845988e-07
5.076869253e-07
5.055193952e-07
5.033829798e-07
5.012785989e-07
4.992071718e-07
4.971695655e-07
4.951666379e-07
4.931991941e-07
4.912680264e-07
4.893738738e-07
4.875174552e-07
4.856994368e-07
4.839204596e-07
4.821811131e-07
4.804819551e-07
4.78823493e-07
4.772061979e-07
4.756304914e-07
4.74096754e-07
4.726053192e-07
4.711564736e-07
4.697504585e-07
4.683874657e-07
4.670676445e-07
4.657910886e-07
4.645578517e-07
4.633679307e-07
4.622212862e-07
4.611178157e-07
4.600573832e-07
4.590397905e-07
4.580648096e-07
4.571321444e-07
4.562414725e-07
4.553924049e-07
4.545845313e-07
4.53817369e-07
4.53090417e-07
4.524031056e-07
4.517548523e-07
4.511449996e-07
4.505728808e-07
4.500377594e-07
4.49538895e-07
4.490754715e-07
4.486466726e-07
4.482516124e-07
4.478894108e-07
4.47559112e-07
4.472597696e-07
4.469903693e-07
4.467499111e-07
4.465373218e-07
4.463515462e-07
4.461914638e-07
4.460559775e-07
4.459439199e-07
4.458541497e-07
4.457854648e-07
4.457366937e-07
4.457065992e-07
4.456939776e-07
4.45697569e-07
4.457161515e-07
4.457484422e-07
4.457931986e-07
4.458491272e-07
4.459149785e-07
4.459894482e-07
4.460712774e-07
4.461591626e-07
4.462518489e-07
4.463480332e-07
4.464464626e-07
4.465458454e-07
4.466449431e-07
4.467424757e-07
4.468372167e-07
4.469279082e-07
4.470133483e-07
4.470923014e-07
4.471635884e-07
4.472260067e-07
4.47278412e-07
4.473196357e-07
4.473485679e-07
4.473640849e-07
4.473651228e-07
4.473506048e-07
4.473195148e-07
4.472708347e-07
4.472036133e-07
4.471169085e-07
4.470098718e-07
4.468817561e-07
4.467321556e-07
4.465569317e-07
4.463634844e-07
4.461398221e-07
4.45891107e-07
4.456118831e-07
4.453040357e-07
4.449712326e-07
4.446125849e-07
4.442280265e-07
4.438176384e-07
4.433816561e-07
4.429205259e-07
4.424349162e-07
4.419257796e-07
4.413943796e-07
4.408423681e-07
4.402718465e-07
4.396854739e-07
4.390865825e-07
4.384793558e-07
4.378690794e-07
4.372624691e-07
4.366681834e-07
4.360974807e-07
4.355652486e-07
4.350912427e-07
4.347019078e-07
4.345859304e-07
4.345708997e-07
4.345557221e-07
4.345404243e-07
4.345250341e-07
4.345095804e-07
4.344940935e-07
4.344785997e-07
4.344631404e-07
4.344477285e-07
4.344324038e-07
4.344171989e-07
4.344021453e-07
4.343872752e-07
4.343726206e-07
4.343582139e-07
4.343440876e-07
4.343302747e-07
4.343168079e-07
4.343037205e-07
4.342910458e-07
4.342788174e-07
4.342670688e-07
4.342558341e-07
4.342451472e-07
4.342350423e-07
4.342255536e-07
4.342167157e-07
4.34208563e-07
4.342011305e-07
4.341944529e-07
4.341885651e-07
4.341835023e-07
4.341792996e-07
4.341759925e-07
4.341736168e-07
4.341722106e-07
4.341718224e-07
4.341724098e-07
4.341741528e-07
4.341770408e-07
4.341810769e-07
4.341862981e-07
4.341927407e-07
4.342004412e-07
4.342094358e-07
4.342197608e-07
4.342314526e-07
4.342445471e-07
4.342590805e-07
4.342750885e-07
4.342926067e-07
4.343116701e-07
4.343323135e-07
4.343545707e-07
4.34378475e-07
4.344040582e-07
4.344313513e-07
4.344603829e-07
4.344911803e-07
4.345237675e-07
4.345581658e-07
4.345943919e-07
4.346324582e-07
4.346723706e-07
4.34714128e-07
4.347577195e-07
4.348031239e-07
4.348503055e-07
4.348992126e-07
4.349497724e-07
4.350018878e-07
4.350554308e-07
4.351102365e-07
4.351660945e-07
4.352227397e-07
4.352798395e-07
4.353369805e-07
4.353936497e-07
4.354492148e-07
4.355028984e-07
4.35553748e-07
4.356006004e-07
4.356420391e-07
4.356763448e-07
4.357014374e-07
4.357148099e-07
)
;

boundaryField
{
    inlet
    {
        type            calculated;
        value           uniform 2.577749959e-10;
    }
    outlet
    {
        type            calculated;
        value           uniform 4.357148099e-07;
    }
    upperWall
    {
        type            empty;
    }
    lowerWall
    {
        type            empty;
    }
    frontAndBack
    {
        type            empty;
    }
}


// ************************************************************************* //
