/*--------------------------------*- C++ -*----------------------------------*\
  =========                 |
  \\      /  F ield         | OpenFOAM: The Open Source CFD Toolbox
   \\    /   O peration     | Website:  https://openfoam.org
    \\  /    A nd           | Version:  9
     \\/     M anipulation  |
\*---------------------------------------------------------------------------*/
FoamFile
{
    format      ascii;
    class       volScalarField;
    location    "0.019";
    object      sourceYcV;
}
// * * * * * * * * * * * * * * * * * * * * * * * * * * * * * * * * * * * * * //

dimensions      [1 -3 -1 0 0 0 0];

internalField   nonuniform List<scalar> 
1000
(
0
0
0
0
0
0
0
0
0
0
0
0
0
0
0
0
0
0
0
0
0
0
0
0
0
0
0
0
0
0
0
0
0
0
0
0
0
0
0
0
0
0
0
0
0
0
0
0
0
0
0
0
0
0
0
0
0
0
0
0
0
0
0
0
0
0
0
0
0
0
0
0
0
0
0
0
0
0
0
0
0
0
0
0
0
0
0
0
0
0
0
0
0
0
0
0
0
0
0
0
0
0
0
0
0
0
0
0
0
0
0
0
0
0
0
0
0
0
0
0
0
0
0
0
0
0
0
0
0
0
0
0
0
0
0
0
0
0
0
0
0
0
0
0
0
0
0
0
0
0
0
0
0
0
0
0
0
0
0
0
0
0
0
0
0
0
0
0
0
0
0
0
0
0
0
0
0
0
0
0
0
0
0
0
0
0
0
0
0
0
0
0
0
0
0
0
0
0
0
0
0
0
0
0
0
0
0
0
0
0
0
0
0
0
0
0
0
0
0
0
0
0
0
0
0
0
0
0
0
0
0
0
0
0
0
0
0
0
0
0
0
0
0
0
0
0
0
0
0
0
0
0
0
0
0
0
0
0
0
0
0
0
0
0
0
0
0
0
0
0
0
0
0
0
0
0
0
0
0
0
0
0
0
0
0
0
0
0
0
0
0
0
0
0
0
0
0
0
0
0
0
0
0
0
0
0
0
0
0
0
0
0
0
0
0
0
0
0
0
0
0
0
0
0
0
0
0
0
0
0
0
0
0
0
0
0
0
0
0
0
0
0
0
0
0
0
0
0
0
0
0
0
0
0
0
0
0
0
0
0
0
0
0
0
0
0
0
0
0
0
0
0
0
0
0
0
0
0
0
0
0
0
0
0
0
0
0
0
0
0
0
0
0
0
0
0
0
0
0
0
0
0
0
0
0
0
0
0
0
0
0
0
0
0
0
0
0
0
0
0
0
0
0
0
0
0
0
0
0
0
0
0
0
0
0
0
0
0
0
0
0
0
0
0
0
0
0
0
0
0
0
0
0
0
0
0
0
0
0
5.770170795e-07
1.385754709e-06
3.181249841e-06
7.026627907e-06
1.48796515e-05
3.076414348e-05
5.924719424e-05
0.0001076805444
0.0001741785779
0.000245086433
0.0002926084979
0.0003054202294
0.0008339351495
0.006859133053
0.1120287691
1.0393527
3.626451261
7.698398523
13.45471101
19.5183769
22.21334279
20.29702753
15.8211118
11.19916057
7.532560163
5.087427649
3.524714431
2.543969632
1.909840967
1.48594846
1.190980425
0.977234909
0.8164500751
0.6927554442
0.5936479495
0.5138321949
0.4475785373
0.3927225982
0.3462738264
0.3067672935
0.273122516
0.2441505485
0.219057518
0.1972373565
0.1781855606
0.1614863306
0.1467954353
0.1338201825
0.1223131713
0.1120963446
0.1030471454
0.09493223369
0.08762482909
0.08103520748
0.07517541437
0.06983176288
0.06496068555
0.06060549127
0.05658179257
0.05294646358
0.04961109787
0.04654618254
0.04375266583
0.04115606862
0.03879285761
0.03658824721
0.03456718004
0.03268965493
0.03093999186
0.02933551677
0.02780184686
0.02642923071
0.02511500304
0.02389390943
0.02276828333
0.02168840829
0.02070098594
0.01977170922
0.01887869324
0.01806702305
0.01730066496
0.01656318742
0.01588167034
0.01524624015
0.01463386904
0.01404743706
0.01351982867
0.01301063232
0.01251904323
0.01205475953
0.01163195062
0.01122316603
0.01082779868
0.01044801464
0.01010642913
0.009775606604
0.009455026498
0.009144226385
0.0088539894
0.00858597238
0.008325735266
0.008072966595
0.007827338686
0.007593804913
0.007380229516
0.007172368839
0.006970006215
0.006772915573
0.006580861438
0.006402162616
0.00623629021
0.006074432433
0.005916454753
0.005762216906
0.005611573204
0.005464754469
0.005333641253
0.005205421758
0.005080017773
0.004957347219
0.004837324481
0.004719859562
0.004604856225
0.004500330876
0.004400420421
0.004302534216
0.004206624888
0.004112643246
0.004020537636
0.003930252713
0.003841728203
0.003759657243
0.003682810647
0.003607419184
0.003533454892
0.003460888586
0.003389689038
0.003319822996
0.0032512541
0.003183942563
0.003119377122
0.003061231004
0.003004113207
0.002948006048
0.002892890751
0.002838747731
0.002785556132
0.00273329393
0.00268193732
0.002631460583
0.002581835276
0.002535426634
0.002492559341
0.002450388948
0.002408903419
0.002368090567
0.00232793786
0.002288432498
0.002249561172
0.002211310053
0.002173664472
0.002136608772
0.002100125895
0.002064197082
0.002032378572
0.002001443209
0.001970965679
0.001940939876
0.001911359696
0.00188221905
0.001853511779
0.001825231633
0.001797372164
0.001769926648
0.001742887954
0.001716248386
0.001689999489
0.001664131785
0.00163865354
0.001616432546
0.001594524154
0.001572925469
0.001551633588
0.001530645531
0.001509958274
0.001489568671
0.00146947349
0.001449669298
0.001430152504
0.001410919216
0.001391965265
0.001373285996
0.001354876261
0.001336730132
0.001318840803
0.001301200143
0.001283798433
0.001268332086
0.001253438412
0.001238754226
0.001224276915
0.001210003759
0.00119593208
0.00118205908
0.001168382007
0.001154898001
0.001141604253
0.00112849783
0.001115575844
0.001102835284
0.001090273178
0.001077886394
0.001065671813
0.001053626133
0.001041746015
0.001030027857
0.001018467929
0.001007062133
0.0009958060897
0.0009846948295
0.000974275722
0.0009648016001
0.0009554429695
0.0009461975811
0.0009370632567
0.0009280377355
0.0009191188266
0.0009103042446
0.0009015917705
0.0008929791023
0.0008844640036
0.0008760441452
0.0008677172602
0.0008594810003
0.0008513330774
0.0008432711138
0.000835292787
0.0008273956943
0.0008195774838
0.000811835714
0.0008041679843
0.0007965718089
0.0007890447308
0.0007815841902
0.0007741876337
0.0007668523925
0.0007595757697
0.0007523549083
0.0007451868632
0.0007380684666
0.0007309963608
0.0007239668385
0.0007178532418
0.000711799524
0.0007057755203
0.0006997793898
0.0006938092545
0.0006878628869
0.0006819434002
0.0006760396856
0.0006701550423
0.0006642886523
0.0006584390422
0.0006526047814
0.0006467844915
0.0006409768473
0.0006351805741
0.0006293944623
0.0006236173506
0.0006178481471
0.0006120858032
0.0006063293502
0.0006005778576
0.0005948304747
0.0005890863796
0.0005833448388
0.000577605138
0.0005718666437
0.000566128726
0.0005603908376
0.0005546524163
0.0005489129621
0.0005431719306
0.0005374288261
0.0005316830705
0.0005259340873
0.000520181158
0.0005144235153
0.0005089560554
0.0005039596684
0.0004989585432
0.0004939532989
0.0004889445894
0.0004839332589
0.0004789201289
0.0004739052187
0.0004688884177
0.0004638780523
0.0004588698145
0.0004538648234
0.0004488642149
0.0004438692631
0.0004388812219
0.0004339014802
0.0004289313982
0.0004239724539
0.0004190260873
0.0004140938623
0.0004091772988
0.0004042780211
0.0003993975993
0.0003945377097
0.000389699966
0.0003848860646
0.0003800976255
0.0003753363479
0.000370603841
0.0003659017635
0.0003612316638
0.0003565951264
0.0003519936025
0.0003474285375
0.0003429012116
0.0003384128679
0.0003339645465
0.0003301846948
0.0003264523002
0.0003227584826
0.0003191049011
0.0003154932398
0.0003119251073
0.0003084021331
0.0003049258689
0.0003014978717
0.0002981196181
0.0002947925853
0.0002915181686
0.0002882977502
0.0002851326297
0.0002820240868
0.000278973319
0.0002759814919
0.0002730496891
0.0002701789552
0.0002673702537
0.0002646244991
0.0002619425268
0.0002593251152
0.0002567729654
0.000254286714
0.0002518669235
0.0002495140832
0.000247228611
0.000245010847
0.0002428610642
0.0002407794485
0.0002387661229
0.0002368211204
0.0002349444169
0.0002331358894
0.0002313953615
0.0002297225584
0.0002281171592
0.0002265787344
0.0002251068135
0.0002237008207
0.0002223601465
0.0002210840664
0.0002198718275
0.0002187225679
0.0002176354052
0.0002166093383
0.0002156433515
0.000214736318
0.0002138871051
0.0002130944596
0.000212357128
0.0002116737462
0.0002110429587
0.0002104632901
0.0002099332792
0.0002094513566
0.0002090159757
0.0002086254729
0.0002082782125
0.0002079724551
0.0002077064975
0.0002074785245
0.0002072867616
0.0002071293367
0.0002070044262
0.000206910101
0.0002068444844
0.0002068056097
0.0002067915691
0.000206800358
0.000206830034
0.0002068785732
0.0002069440202
0.0002070243315
0.0002071175348
0.0002072215855
0.000207334515
0.0002074542772
0.0002075789037
0.0002077063643
0.0002078347106
0.000207961928
0.0002080860847
0.0002082051984
0.0002083173733
0.0002084206596
0.0002085131949
0.0002085930787
0.0002086585007
0.0002087076114
0.0002087386522
0.0002087498414
0.0002087394906
0.0002087058893
0.000208647422
0.0002085624681
0.0002084495119
0.0002083070504
0.0002081337266
0.0002079283412
0.0002076902282
0.0002074128825
0.0002071078469
0.0002067563329
0.0002063663771
0.000205929334
0.0002054481496
0.0002049285972
0.0002043692435
0.0002037699549
0.000203130829
0.0002024522065
0.0002017347604
0.0002009795135
0.0002001879368
0.0001993619914
0.0001985042517
0.0001976180007
0.0001967074023
0.0001957776825
0.0001948354116
0.0001938889004
0.0001929487181
0.0001920285017
0.0001911459942
0.0001903246676
0.0001895956776
0.0001890007347
0
0
0
0
0
0
0
0
0
0
0
0
0
0
0
0
0
0
0
0
0
0
0
0
0
0
0
0
0
0
0
0
0
0
0
0
0
0
0
0
0
0
0
0
0
0
0
0
0
0
0
0
0
0
0
0
0
0
0
0
0
0
0
0
0
0
0
0
0
0
0
0
0
0
0
0
0
0
0
0
0
0
0
0
0
0
0
)
;

boundaryField
{
    inlet
    {
        type            calculated;
        value           uniform 0;
    }
    outlet
    {
        type            calculated;
        value           uniform 0;
    }
    upperWall
    {
        type            empty;
    }
    lowerWall
    {
        type            empty;
    }
    frontAndBack
    {
        type            empty;
    }
}


// ************************************************************************* //
