/*--------------------------------*- C++ -*----------------------------------*\
  =========                 |
  \\      /  F ield         | OpenFOAM: The Open Source CFD Toolbox
   \\    /   O peration     | Website:  https://openfoam.org
    \\  /    A nd           | Version:  9
     \\/     M anipulation  |
\*---------------------------------------------------------------------------*/
FoamFile
{
    format      ascii;
    class       volScalarField;
    location    "0.019";
    object      sourceH2;
}
// * * * * * * * * * * * * * * * * * * * * * * * * * * * * * * * * * * * * * //

dimensions      [1 -3 -1 0 0 0 0];

internalField   nonuniform List<scalar> 
1000
(
0
0
0
0
0
0
0
0
0
0
0
0
0
0
0
0
0
0
0
0
0
0
0
0
0
0
0
0
0
0
0
0
0
0
0
0
0
0
0
0
0
0
0
0
0
0
0
0
0
0
0
0
0
0
0
0
0
0
0
0
0
0
0
0
0
0
0
0
0
0
0
0
0
0
0
0
0
0
0
0
0
0
0
0
0
0
0
0
0
0
0
0
0
0
0
0
0
0
0
0
0
0
0
0
0
0
0
0
0
0
0
0
0
0
0
0
0
0
0
0
0
0
0
0
0
0
0
0
0
0
0
0
0
0
0
0
0
0
0
0
0
0
0
0
0
0
0
0
0
0
0
0
0
0
0
0
0
0
0
0
0
0
0
0
0
0
0
0
0
0
0
0
0
0
0
0
0
0
0
0
0
0
0
0
0
0
0
0
0
0
0
0
0
0
0
0
0
0
0
0
0
0
0
0
0
0
0
0
0
0
0
0
0
0
0
0
0
0
0
0
0
0
0
0
0
0
0
0
0
0
0
0
0
0
0
0
0
0
0
0
0
0
0
0
0
0
0
0
0
0
0
0
0
0
0
0
0
0
0
0
0
0
0
0
0
0
0
0
0
0
0
0
0
0
0
0
0
0
0
0
0
0
0
0
0
0
0
0
0
0
0
0
0
0
0
0
0
0
0
0
0
0
0
0
0
0
0
0
0
0
0
0
0
0
0
0
0
0
0
0
0
0
0
0
0
0
0
0
0
0
0
0
0
0
0
0
0
0
0
0
0
0
0
0
0
0
0
0
0
0
0
0
0
0
0
0
0
0
0
0
0
0
0
0
0
0
0
0
0
0
0
0
0
0
0
0
0
0
0
0
0
0
0
0
0
0
0
0
0
0
0
0
0
0
0
0
0
0
0
0
0
0
0
0
0
0
0
0
0
0
0
0
0
0
0
0
0
0
0
0
0
0
0
0
0
0
0
0
0
0
0
0
0
0
0
0
0
0
0
0
0
0
0
0
0
0
0
0
0
0
0
0
0
0
0
0
0
0
0
-5.036419058e-06
-1.214839631e-05
-2.807909874e-05
-6.267657773e-05
-0.0001349746358
-0.0002838979467
-0.00056269126
-0.001056891331
-0.001783696293
-0.002617469939
-0.0031523707
-0.00284778832
-0.005453455685
-0.0373798304
-0.4059586892
-2.72454126
-7.384902899
-13.17004712
-20.87705454
-27.82910897
-29.12805088
-24.60967108
-17.78437609
-11.61595815
-7.123112406
-4.338533277
-2.693935755
-1.745531835
-1.18724803
-0.8502935476
-0.6390554803
-0.5004447558
-0.4047281519
-0.3360911466
-0.2836149938
-0.2429422813
-0.2098244776
-0.1827824158
-0.1600473433
-0.1408325313
-0.1244934696
-0.1104359075
-0.09827144324
-0.08770810502
-0.07850265038
-0.07045248289
-0.06338900129
-0.05717035501
-0.05167632869
-0.04681996944
-0.04254320856
-0.03872908542
-0.03531339714
-0.03225053788
-0.02955098465
-0.02710403094
-0.02488831927
-0.02292911341
-0.02112777127
-0.01951678265
-0.01805015003
-0.01671312902
-0.0155083882
-0.01439585605
-0.01339570588
-0.01246828846
-0.01162821891
-0.01085449735
-0.01013964128
-0.009493957217
-0.008876973741
-0.00833753249
-0.007821175876
-0.007346770797
-0.006915949371
-0.0065027277
-0.006132464501
-0.005787137999
-0.005455354982
-0.005160372566
-0.004883976569
-0.004618055504
-0.004376815727
-0.004155352937
-0.003941971322
-0.003738257054
-0.003560731248
-0.003389420607
-0.003224062168
-0.00306943741
-0.002932486785
-0.002800085324
-0.002672045574
-0.002549484911
-0.002443389219
-0.00234063283
-0.002241070653
-0.002144558343
-0.002056006659
-0.001976219612
-0.001898756672
-0.001823529958
-0.00175044015
-0.001681779643
-0.001621159764
-0.001562167149
-0.001504743365
-0.001448822793
-0.001394335375
-0.001344773426
-0.001299943424
-0.00125619842
-0.001213505628
-0.001171827226
-0.001131122588
-0.00109150543
-0.001057936585
-0.001025104428
-0.0009929939693
-0.0009615861196
-0.0009308595115
-0.0009007907099
-0.0008713537721
-0.0008456600276
-0.0008214519485
-0.0007977357502
-0.0007745004596
-0.0007517340727
-0.0007294241104
-0.0007075564882
-0.0006861157159
-0.0006668175924
-0.0006492205195
-0.0006319565964
-0.0006150198781
-0.0005984038321
-0.0005821012664
-0.0005661043835
-0.0005504045329
-0.0005349920859
-0.0005203917621
-0.0005078915265
-0.0004956113506
-0.0004835479985
-0.0004716977205
-0.0004600564262
-0.0004486196504
-0.0004373826118
-0.0004263400976
-0.0004154864347
-0.0004048153058
-0.0003951205439
-0.0003865136696
-0.0003780461815
-0.0003697158198
-0.0003615202078
-0.0003534568464
-0.0003455231493
-0.000337716408
-0.0003300337966
-0.0003224723159
-0.0003150287762
-0.0003076997395
-0.0003004815201
-0.0002945536292
-0.000288849693
-0.0002832301052
-0.0002776938389
-0.0002722398274
-0.0002668669813
-0.0002615741826
-0.0002563602855
-0.000251224102
-0.0002461643895
-0.0002411798275
-0.0002362689908
-0.0002314303139
-0.0002266620448
-0.0002219677961
-0.0002181920085
-0.0002144693324
-0.0002107992766
-0.0002071813485
-0.000203615042
-0.0002000998437
-0.0001966352195
-0.0001932206204
-0.0001898554636
-0.000186539139
-0.0001832709859
-0.0001800502961
-0.0001768762791
-0.0001737480603
-0.0001706646331
-0.0001676248414
-0.0001646273041
-0.0001616703702
-0.0001592149707
-0.0001568907253
-0.0001545991682
-0.0001523398917
-0.000150112472
-0.0001479164912
-0.0001457515131
-0.0001436171085
-0.0001415128316
-0.000139438244
-0.0001373928883
-0.0001353763141
-0.0001333880519
-0.0001314276378
-0.0001294945837
-0.0001275884029
-0.0001257085803
-0.0001238545951
-0.0001220258852
-0.000120221869
-0.0001184419072
-0.0001166853164
-0.0001149513212
-0.0001133786825
-0.000112031708
-0.0001107011508
-0.0001093866914
-0.0001080880203
-0.0001068048163
-0.0001055367681
-0.000104283551
-0.0001030448498
-0.0001018203372
-0.0001006096956
-9.941259387e-05
-9.822870992e-05
-9.705771002e-05
-9.589926904e-05
-9.475304905e-05
-9.361871997e-05
-9.249594035e-05
-9.138437594e-05
-9.028367971e-05
-8.91935105e-05
-8.811351499e-05
-8.704334395e-05
-8.598263354e-05
-8.493102084e-05
-8.38881265e-05
-8.285356714e-05
-8.182693667e-05
-8.080781641e-05
-7.979575603e-05
-7.879027818e-05
-7.779085579e-05
-7.700258969e-05
-7.622501827e-05
-7.54512619e-05
-7.468108428e-05
-7.391424439e-05
-7.315045623e-05
-7.239011991e-05
-7.163180854e-05
-7.087594611e-05
-7.012242766e-05
-6.937106408e-05
-6.862167169e-05
-6.787407359e-05
-6.712809962e-05
-6.638358619e-05
-6.564037798e-05
-6.489832594e-05
-6.415728991e-05
-6.341713524e-05
-6.267773759e-05
-6.19389775e-05
-6.120074576e-05
-6.046293686e-05
-5.97254566e-05
-5.898821329e-05
-5.825112559e-05
-5.751411261e-05
-5.677710405e-05
-5.604002774e-05
-5.530281943e-05
-5.45654092e-05
-5.382773336e-05
-5.308971762e-05
-5.235128792e-05
-5.161235188e-05
-5.08728109e-05
-5.01969192e-05
-4.962406547e-05
-4.905067038e-05
-4.847680496e-05
-4.790254424e-05
-4.732798504e-05
-4.675322158e-05
-4.617825604e-05
-4.560307572e-05
-4.50286354e-05
-4.4454441e-05
-4.388062077e-05
-4.33073049e-05
-4.27346394e-05
-4.216276795e-05
-4.159184973e-05
-4.102204059e-05
-4.045350987e-05
-3.988642259e-05
-3.932095792e-05
-3.875729001e-05
-3.819560497e-05
-3.763608267e-05
-3.707891519e-05
-3.652428737e-05
-3.597239358e-05
-3.542341941e-05
-3.487755952e-05
-3.433499826e-05
-3.379592565e-05
-3.326051906e-05
-3.272895999e-05
-3.220141468e-05
-3.167804867e-05
-3.115900858e-05
-3.064443677e-05
-3.013445227e-05
-2.98406273e-05
-2.95532262e-05
-2.926880624e-05
-2.898749514e-05
-2.870942257e-05
-2.843471234e-05
-2.816348988e-05
-2.789587457e-05
-2.763198625e-05
-2.737193852e-05
-2.711584502e-05
-2.686381309e-05
-2.661594903e-05
-2.637235279e-05
-2.613312278e-05
-2.589835107e-05
-2.566812725e-05
-2.544253462e-05
-2.522165345e-05
-2.500555776e-05
-2.47943178e-05
-2.458799771e-05
-2.438665726e-05
-2.419035022e-05
-2.399912541e-05
-2.381302596e-05
-2.363208932e-05
-2.345634748e-05
-2.328582638e-05
-2.312054684e-05
-2.296052293e-05
-2.280576389e-05
-2.265627203e-05
-2.251204524e-05
-2.237307379e-05
-2.223934387e-05
-2.211083403e-05
-2.198751931e-05
-2.186936638e-05
-2.175633872e-05
-2.164839172e-05
-2.154547816e-05
-2.144754196e-05
-2.135452488e-05
-2.126636022e-05
-2.118297976e-05
-2.110430609e-05
-2.10302607e-05
-2.096075651e-05
-2.089570598e-05
-2.08350123e-05
-2.077857861e-05
-2.072629955e-05
-2.067807042e-05
-2.063377727e-05
-2.059330725e-05
-2.055653918e-05
-2.052335362e-05
-2.049362214e-05
-2.046721843e-05
-2.044400822e-05
-2.042386001e-05
-2.040663367e-05
-2.039219223e-05
-2.038039119e-05
-2.037108978e-05
-2.03641391e-05
-2.035939432e-05
-2.035670364e-05
-2.035591984e-05
-2.035688821e-05
-2.035945885e-05
-2.036347559e-05
-2.036878756e-05
-2.037523707e-05
-2.038267194e-05
-2.039093441e-05
-2.039987263e-05
-2.040932873e-05
-2.041915086e-05
-2.042918241e-05
-2.043927309e-05
-2.04492675e-05
-2.045901664e-05
-2.046836764e-05
-2.047717428e-05
-2.048528619e-05
-2.049255978e-05
-2.049884848e-05
-2.050401274e-05
-2.050790994e-05
-2.051040453e-05
-2.051135916e-05
-2.05106437e-05
-2.050812629e-05
-2.050368245e-05
-2.049718729e-05
-2.048852405e-05
-2.047757691e-05
-2.046424137e-05
-2.044842507e-05
-2.043007684e-05
-2.040869486e-05
-2.03851702e-05
-2.035805305e-05
-2.032796392e-05
-2.029423638e-05
-2.02570978e-05
-2.021699353e-05
-2.017381327e-05
-2.012754691e-05
-2.007820223e-05
-2.002580571e-05
-1.997040951e-05
-1.991209273e-05
-1.985096906e-05
-1.978718996e-05
-1.972095421e-05
-1.965251522e-05
-1.958219431e-05
-1.951039472e-05
-1.943762334e-05
-1.936452124e-05
-1.929190365e-05
-1.922082237e-05
-1.915264579e-05
-1.908918416e-05
-1.903284035e-05
-1.898683124e-05
0
0
0
0
0
0
0
0
0
0
0
0
0
0
0
0
0
0
0
0
0
0
0
0
0
0
0
0
0
0
0
0
0
0
0
0
0
0
0
0
0
0
0
0
0
0
0
0
0
0
0
0
0
0
0
0
0
0
0
0
0
0
0
0
0
0
0
0
0
0
0
0
0
0
0
0
0
0
0
0
0
0
0
0
0
0
0
)
;

boundaryField
{
    inlet
    {
        type            calculated;
        value           uniform 0;
    }
    outlet
    {
        type            calculated;
        value           uniform 0;
    }
    upperWall
    {
        type            empty;
    }
    lowerWall
    {
        type            empty;
    }
    frontAndBack
    {
        type            empty;
    }
}


// ************************************************************************* //
