/*--------------------------------*- C++ -*----------------------------------*\
  =========                 |
  \\      /  F ield         | OpenFOAM: The Open Source CFD Toolbox
   \\    /   O peration     | Website:  https://openfoam.org
    \\  /    A nd           | Version:  9
     \\/     M anipulation  |
\*---------------------------------------------------------------------------*/
FoamFile
{
    format      ascii;
    class       volScalarField;
    location    "0.019";
    object      T;
}
// * * * * * * * * * * * * * * * * * * * * * * * * * * * * * * * * * * * * * //

dimensions      [0 0 0 1 0 0 0];

internalField   nonuniform List<scalar> 
1000
(
298.15
298.15
298.15
298.15
298.15
298.15
298.15
298.15
298.15
298.15
298.15
298.15
298.15
298.15
298.15
298.15
298.15
298.15
298.15
298.15
298.15
298.15
298.15
298.15
298.15
298.15
298.15
298.15
298.15
298.15
298.15
298.15
298.15
298.15
298.15
298.15
298.15
298.15
298.15
298.15
298.15
298.15
298.15
298.15
298.15
298.15
298.15
298.15
298.15
298.15
298.15
298.15
298.15
298.15
298.15
298.15
298.15
298.15
298.15
298.15
298.15
298.15
298.15
298.15
298.15
298.15
298.15
298.15
298.15
298.15
298.15
298.15
298.15
298.15
298.15
298.15
298.15
298.15
298.15
298.15
298.15
298.15
298.15
298.15
298.15
298.15
298.15
298.15
298.15
298.15
298.15
298.15
298.15
298.15
298.15
298.15
298.15
298.15
298.15
298.15
298.15
298.15
298.15
298.15
298.15
298.15
298.15
298.15
298.15
298.15
298.15
298.15
298.15
298.15
298.15
298.15
298.15
298.15
298.15
298.15
298.15
298.15
298.15
298.15
298.15
298.15
298.15
298.15
298.15
298.15
298.15
298.15
298.15
298.15
298.15
298.15
298.15
298.15
298.15
298.15
298.15
298.15
298.15
298.15
298.15
298.15
298.15
298.15
298.15
298.15
298.15
298.15
298.15
298.15
298.15
298.15
298.15
298.15
298.15
298.15
298.15
298.15
298.15
298.15
298.15
298.15
298.15
298.15
298.15
298.15
298.15
298.15
298.15
298.15
298.15
298.15
298.15
298.15
298.15
298.15
298.15
298.15
298.15
298.15
298.15
298.15
298.15
298.15
298.15
298.15
298.15
298.15
298.15
298.15
298.15
298.15
298.15
298.15
298.15
298.15
298.15
298.15
298.15
298.15
298.15
298.15
298.15
298.15
298.15
298.15
298.15
298.15
298.15
298.15
298.15
298.15
298.15
298.15
298.15
298.15
298.15
298.15
298.15
298.15
298.15
298.15
298.15
298.15
298.15
298.15
298.15
298.15
298.15
298.15
298.15
298.15
298.15
298.15
298.15
298.15
298.15
298.15
298.15
298.15
298.15
298.15
298.15
298.15
298.15
298.15
298.15
298.15
298.15
298.15
298.15
298.15
298.15
298.15
298.15
298.15
298.15
298.15
298.15
298.15
298.15
298.15
298.15
298.15
298.15
298.15
298.15
298.15
298.15
298.15
298.15
298.15
298.15
298.15
298.15
298.15
298.15
298.15
298.15
298.15
298.15
298.15
298.15
298.15
298.15
298.15
298.15
298.15
298.15
298.15
298.15
298.15
298.15
298.15
298.15
298.15
298.15
298.15
298.15
298.15
298.15
298.15
298.15
298.15
298.15
298.15
298.15
298.15
298.15
298.15
298.15
298.15
298.15
298.15
298.15
298.15
298.15
298.15
298.15
298.15
298.15
298.15
298.15
298.15
298.15
298.15
298.15
298.15
298.15
298.15
298.15
298.15
298.15
298.15
298.15
298.15
298.15
298.15
298.15
298.15
298.15
298.15
298.15
298.15
298.15
298.15
298.15
298.15
298.15
298.15
298.15
298.15
298.15
298.15
298.15
298.15
298.15
298.15
298.15
298.15
298.15
298.15
298.15
298.15
298.15
298.15
298.15
298.15
298.15
298.15
298.15
298.15
298.15
298.15
298.15
298.15
298.15
298.15
298.15
298.15
298.15
298.15
298.15
298.15
298.15
298.15
298.15
298.15
298.15
298.15
298.15
298.15
298.15
298.15
298.15
298.15
298.15
298.15
298.15
298.15
298.15
298.15
298.15
298.15
298.15
298.15
298.15
298.15
298.15
298.15
298.15
298.15
298.15
298.15
298.15
298.15
298.15
298.15
298.15
298.15
298.15
298.15
298.15
298.15
298.15
298.15
298.15
298.15
298.15
298.15
298.15
298.15
298.15
298.15
298.15
298.15
298.15
298.15
298.15
298.15
298.15
298.15
298.15
298.15
298.15
298.1500002
298.1500005
298.1500013
298.1500033
298.1500083
298.1500207
298.1500517
298.150129
298.1503216
298.1508011
298.1519942
298.1549591
298.1619655
298.17842
298.2170906
298.3081726
298.5230394
299.0304289
300.2254109
303.0155737
309.4070962
323.488865
352.284157
403.313423
490.1144824
616.3823634
764.8270927
911.9111831
1044.616514
1157.875137
1250.469881
1323.840704
1380.941857
1425.166192
1459.981248
1487.754575
1510.012001
1527.941948
1542.533693
1554.547711
1564.542554
1572.934153
1580.039058
1586.086858
1591.285073
1595.760117
1599.654099
1603.047061
1606.030458
1608.664568
1610.995444
1613.070643
1614.926651
1616.592839
1618.094206
1619.452152
1620.684971
1621.808222
1622.835141
1623.776318
1624.640095
1625.436907
1626.174063
1626.857447
1627.489871
1628.079341
1628.629364
1629.141026
1629.620965
1630.069489
1630.490298
1630.885506
1631.256237
1631.605563
1631.933667
1632.243398
1632.534994
1632.810311
1633.070459
1633.315699
1633.54872
1633.767877
1633.976405
1634.174006
1634.361178
1634.539689
1634.708768
1634.869802
1635.023811
1635.170068
1635.309853
1635.44395
1635.571946
1635.69442
1635.812292
1635.92575
1636.034162
1636.138831
1636.239977
1636.337543
1636.431343
1636.522228
1636.610348
1636.695766
1636.777971
1636.857829
1636.935443
1637.010911
1637.08403
1637.154829
1637.22375
1637.290853
1637.356203
1637.419701
1637.481157
1637.541049
1637.599421
1637.65632
1637.711795
1637.765677
1637.818022
1637.869094
1637.918929
1637.967565
1638.015046
1638.061405
1638.106335
1638.150247
1638.193173
1638.235147
1638.276205
1638.316382
1638.355721
1638.394009
1638.431459
1638.468178
1638.504192
1638.539527
1638.574211
1638.608273
1638.641741
1638.674501
1638.706613
1638.73821
1638.769306
1638.79992
1638.830065
1638.85976
1638.889021
1638.917864
1638.946265
1638.974134
1639.001633
1639.02877
1639.055551
1639.081984
1639.108075
1639.133833
1639.159265
1639.184379
1639.209185
1639.233621
1639.257684
1639.281464
1639.304962
1639.328181
1639.351126
1639.373798
1639.396201
1639.41834
1639.440219
1639.461843
1639.483217
1639.504349
1639.525134
1639.545676
1639.56599
1639.586076
1639.605936
1639.625572
1639.644985
1639.664177
1639.68315
1639.701907
1639.720448
1639.738778
1639.7569
1639.774816
1639.792531
1639.809954
1639.827184
1639.84422
1639.861063
1639.877712
1639.894168
1639.910432
1639.926502
1639.94238
1639.958066
1639.97356
1639.988863
1640.003975
1640.018898
1640.033634
1640.048182
1640.062547
1640.07673
1640.090674
1640.104427
1640.118
1640.131392
1640.144605
1640.157639
1640.170493
1640.183167
1640.195662
1640.207979
1640.220117
1640.232078
1640.243861
1640.255469
1640.2669
1640.278158
1640.289241
1640.300153
1640.310894
1640.321466
1640.331871
1640.342111
1640.352189
1640.362087
1640.371798
1640.381355
1640.390758
1640.400009
1640.409108
1640.418059
1640.426861
1640.435517
1640.444028
1640.452396
1640.460622
1640.468709
1640.476659
1640.484472
1640.492153
1640.499701
1640.507121
1640.514413
1640.521581
1640.528627
1640.535553
1640.542362
1640.549056
1640.555639
1640.562114
1640.568482
1640.574748
1640.580915
1640.586987
1640.592967
1640.59886
1640.604635
1640.610329
1640.615946
1640.62149
1640.626963
1640.632369
1640.63771
1640.642992
1640.648216
1640.653386
1640.658505
1640.663576
1640.668603
1640.673588
1640.678536
1640.683449
1640.688332
1640.693186
1640.698016
1640.702826
1640.707617
1640.712394
1640.71716
1640.721918
1640.726671
1640.731423
1640.736177
1640.740936
1640.745703
1640.750481
1640.755274
1640.760086
1640.764918
1640.769774
1640.774658
1640.779574
1640.784511
1640.789466
1640.794461
1640.799498
1640.804578
1640.809704
1640.814877
1640.820099
1640.825372
1640.830695
1640.836072
1640.841502
1640.846987
1640.852529
1640.858128
1640.863784
1640.869498
1640.875272
1640.881104
1640.886995
1640.892945
1640.898955
1640.905023
1640.91115
1640.917336
1640.923579
1640.92988
1640.936238
1640.942651
1640.949119
1640.955641
1640.962216
1640.968844
1640.975522
1640.98225
1640.989026
1640.99585
1641.002723
1641.00964
1641.016599
1641.023597
1641.030631
1641.0377
1641.044799
1641.051927
1641.059081
1641.066257
1641.073453
1641.080665
1641.08789
1641.095126
1641.102368
1641.109614
1641.116861
1641.124104
1641.131342
1641.138569
1641.145783
1641.152981
1641.160159
1641.167314
1641.174441
1641.181539
1641.188603
1641.19563
1641.202617
1641.20956
1641.216456
1641.223302
1641.230095
1641.236832
1641.243508
1641.250122
1641.256671
1641.26315
1641.269558
1641.275892
1641.282149
1641.288326
1641.294421
1641.300431
1641.306354
1641.312187
1641.317929
1641.323577
1641.329129
1641.334583
1641.339937
1641.34519
1641.35034
1641.355386
1641.360326
1641.365158
1641.369882
1641.374496
1641.379
1641.383393
1641.387674
1641.391842
1641.395897
1641.399838
1641.403665
1641.407379
1641.410979
1641.414464
1641.417837
1641.421095
1641.424241
1641.427274
1641.430196
1641.433006
1641.435707
1641.438298
1641.440781
1641.443157
1641.445428
1641.447595
1641.449659
1641.451621
1641.453485
1641.455251
1641.456921
1641.458497
1641.459982
1641.461377
1641.462685
1641.463908
1641.465048
1641.466108
1641.46709
1641.467997
1641.468831
1641.469596
1641.470293
1641.470926
1641.471498
1641.47201
1641.472466
1641.472869
1641.473224
1641.473527
1641.47379
1641.474011
1641.474202
1641.474363
1641.474488
1641.474581
1641.474644
1641.47468
1641.474689
1641.474674
1641.474636
1641.474575
1641.474492
1641.474387
1641.474257
1641.474102
1641.473918
1641.473701
1641.473443
1641.473137
1641.472769
1641.472323
1641.471777
1641.471099
1641.470249
1641.468852
1641.467242
1641.465616
1641.463977
1641.462329
1641.460674
1641.459015
1641.457355
1641.455699
1641.454049
1641.452407
1641.450779
1641.449166
1641.447573
1641.446004
1641.444461
1641.442948
1641.441468
1641.440026
1641.438624
1641.437266
1641.435956
1641.434698
1641.433495
1641.43235
1641.431268
1641.430251
1641.429305
1641.428431
1641.427635
1641.42692
1641.426289
1641.425747
1641.425297
1641.424943
1641.424688
1641.424538
1641.424496
1641.424559
1641.424746
1641.425055
1641.425487
1641.426047
1641.426737
1641.427561
1641.428525
1641.429631
1641.430883
1641.432286
1641.433842
1641.435557
1641.437433
1641.439475
1641.441686
1641.44407
1641.446631
1641.449371
1641.452294
1641.455404
1641.458703
1641.462193
1641.465878
1641.469758
1641.473835
1641.47811
1641.482583
1641.487252
1641.492115
1641.497169
1641.502407
1641.507823
1641.513405
1641.51914
1641.52501
1641.530993
1641.537061
1641.543177
1641.549297
1641.555367
1641.561319
1641.567069
1641.572515
1641.577534
1641.581972
1641.585647
1641.588334
1641.589767
)
;

boundaryField
{
    inlet
    {
        type            fixedValue;
        value           uniform 298.15;
    }
    outlet
    {
        type            zeroGradient;
    }
    upperWall
    {
        type            empty;
    }
    lowerWall
    {
        type            empty;
    }
    frontAndBack
    {
        type            empty;
    }
}


// ************************************************************************* //
