/*--------------------------------*- C++ -*----------------------------------*\
  =========                 |
  \\      /  F ield         | OpenFOAM: The Open Source CFD Toolbox
   \\    /   O peration     | Website:  https://openfoam.org
    \\  /    A nd           | Version:  9
     \\/     M anipulation  |
\*---------------------------------------------------------------------------*/
FoamFile
{
    format      ascii;
    class       volVectorField;
    location    "0.019";
    object      U;
}
// * * * * * * * * * * * * * * * * * * * * * * * * * * * * * * * * * * * * * //

dimensions      [0 1 -1 0 0 0 0];

internalField   nonuniform List<vector> 
1000
(
(0.4959526956 0 0)
(0.4959459769 0 0)
(0.4959396828 0 0)
(0.4959335928 0 0)
(0.4959275118 0 0)
(0.4959214156 0 0)
(0.4959153062 0 0)
(0.4959092026 0 0)
(0.4959030943 0 0)
(0.4958969913 0 0)
(0.4958908827 0 0)
(0.4958847797 0 0)
(0.4958786716 0 0)
(0.4958725681 0 0)
(0.4958664591 0 0)
(0.4958603556 0 0)
(0.4958542472 0 0)
(0.4958481431 0 0)
(0.4958420338 0 0)
(0.4958359297 0 0)
(0.4958298208 0 0)
(0.4958237159 0 0)
(0.4958176061 0 0)
(0.4958115012 0 0)
(0.4958053917 0 0)
(0.4957992861 0 0)
(0.4957931757 0 0)
(0.4957870698 0 0)
(0.4957809597 0 0)
(0.495774853 0 0)
(0.4957687418 0 0)
(0.495762635 0 0)
(0.4957565239 0 0)
(0.4957504163 0 0)
(0.4957443042 0 0)
(0.4957381962 0 0)
(0.4957320842 0 0)
(0.4957259753 0 0)
(0.4957198622 0 0)
(0.495713753 0 0)
(0.4957076399 0 0)
(0.4957015297 0 0)
(0.4956954155 0 0)
(0.4956893049 0 0)
(0.4956831906 0 0)
(0.495677079 0 0)
(0.4956709635 0 0)
(0.4956648515 0 0)
(0.4956587358 0 0)
(0.4956526228 0 0)
(0.4956465059 0 0)
(0.4956403924 0 0)
(0.4956342752 0 0)
(0.4956281607 0 0)
(0.4956220422 0 0)
(0.4956159271 0 0)
(0.4956098084 0 0)
(0.4956036922 0 0)
(0.4955975723 0 0)
(0.4955914554 0 0)
(0.4955853351 0 0)
(0.4955792171 0 0)
(0.4955730955 0 0)
(0.4955669769 0 0)
(0.4955608548 0 0)
(0.4955547351 0 0)
(0.4955486117 0 0)
(0.4955424913 0 0)
(0.4955363674 0 0)
(0.4955302458 0 0)
(0.4955241206 0 0)
(0.4955179983 0 0)
(0.4955118726 0 0)
(0.4955057491 0 0)
(0.495499622 0 0)
(0.4954934977 0 0)
(0.4954873701 0 0)
(0.4954812446 0 0)
(0.4954751156 0 0)
(0.4954689894 0 0)
(0.4954628598 0 0)
(0.4954567323 0 0)
(0.4954506013 0 0)
(0.4954444731 0 0)
(0.4954383415 0 0)
(0.4954322121 0 0)
(0.495426079 0 0)
(0.4954199488 0 0)
(0.4954138152 0 0)
(0.4954076837 0 0)
(0.4954015487 0 0)
(0.4953954164 0 0)
(0.4953892807 0 0)
(0.4953831472 0 0)
(0.49537701 0 0)
(0.4953708758 0 0)
(0.4953647381 0 0)
(0.4953586025 0 0)
(0.4953524634 0 0)
(0.4953463271 0 0)
(0.4953401874 0 0)
(0.4953340498 0 0)
(0.4953279086 0 0)
(0.4953217702 0 0)
(0.4953156286 0 0)
(0.495309489 0 0)
(0.4953033459 0 0)
(0.4952972055 0 0)
(0.4952910618 0 0)
(0.4952849203 0 0)
(0.4952787751 0 0)
(0.4952726329 0 0)
(0.4952664873 0 0)
(0.4952603438 0 0)
(0.4952541968 0 0)
(0.4952480526 0 0)
(0.4952419051 0 0)
(0.4952357598 0 0)
(0.4952296109 0 0)
(0.4952234649 0 0)
(0.4952173156 0 0)
(0.4952111684 0 0)
(0.4952050179 0 0)
(0.49519887 0 0)
(0.495192719 0 0)
(0.4951865701 0 0)
(0.4951804177 0 0)
(0.4951742683 0 0)
(0.4951681156 0 0)
(0.4951619651 0 0)
(0.4951558112 0 0)
(0.4951496601 0 0)
(0.4951435058 0 0)
(0.4951373538 0 0)
(0.4951311983 0 0)
(0.4951250458 0 0)
(0.4951188901 0 0)
(0.4951127366 0 0)
(0.4951065798 0 0)
(0.4951004259 0 0)
(0.4950942688 0 0)
(0.4950881141 0 0)
(0.4950819559 0 0)
(0.4950758008 0 0)
(0.4950696425 0 0)
(0.4950634866 0 0)
(0.4950573273 0 0)
(0.495051171 0 0)
(0.4950450117 0 0)
(0.4950388547 0 0)
(0.4950326944 0 0)
(0.4950265372 0 0)
(0.4950203769 0 0)
(0.4950142191 0 0)
(0.495008058 0 0)
(0.4950019 0 0)
(0.4949957389 0 0)
(0.4949895803 0 0)
(0.4949834185 0 0)
(0.4949772599 0 0)
(0.4949710983 0 0)
(0.4949649392 0 0)
(0.4949587769 0 0)
(0.4949526178 0 0)
(0.4949464558 0 0)
(0.4949402963 0 0)
(0.4949341337 0 0)
(0.4949279743 0 0)
(0.4949218121 0 0)
(0.4949156525 0 0)
(0.4949094897 0 0)
(0.4949033303 0 0)
(0.494897168 0 0)
(0.4948910083 0 0)
(0.4948848455 0 0)
(0.4948786862 0 0)
(0.4948725239 0 0)
(0.4948663645 0 0)
(0.4948602018 0 0)
(0.4948540426 0 0)
(0.4948478805 0 0)
(0.4948417212 0 0)
(0.4948355588 0 0)
(0.4948294 0 0)
(0.4948232383 0 0)
(0.4948170796 0 0)
(0.4948109178 0 0)
(0.4948047596 0 0)
(0.4947985987 0 0)
(0.4947924406 0 0)
(0.4947862794 0 0)
(0.4947801219 0 0)
(0.4947739615 0 0)
(0.4947678047 0 0)
(0.4947616457 0 0)
(0.4947554905 0 0)
(0.4947493227 0 0)
(0.4947431039 0 0)
(0.4947368489 0 0)
(0.4947309835 0 0)
(0.494725725 0 0)
(0.4947199416 0 0)
(0.4947130351 0 0)
(0.4947055713 0 0)
(0.494698817 0 0)
(0.4946927455 0 0)
(0.4946869952 0 0)
(0.4946813545 0 0)
(0.4946755072 0 0)
(0.4946694157 0 0)
(0.4946632266 0 0)
(0.4946570437 0 0)
(0.4946508811 0 0)
(0.4946447349 0 0)
(0.4946385894 0 0)
(0.4946324468 0 0)
(0.494626301 0 0)
(0.4946201582 0 0)
(0.4946140129 0 0)
(0.4946078714 0 0)
(0.4946017279 0 0)
(0.4945955875 0 0)
(0.4945894449 0 0)
(0.4945833061 0 0)
(0.4945771654 0 0)
(0.494571028 0 0)
(0.4945648884 0 0)
(0.4945587527 0 0)
(0.4945526151 0 0)
(0.4945464808 0 0)
(0.4945403445 0 0)
(0.494534212 0 0)
(0.4945280779 0 0)
(0.4945219471 0 0)
(0.4945158144 0 0)
(0.4945096855 0 0)
(0.4945035552 0 0)
(0.494497428 0 0)
(0.4944912993 0 0)
(0.4944851743 0 0)
(0.494479048 0 0)
(0.494472925 0 0)
(0.4944668004 0 0)
(0.4944606796 0 0)
(0.4944545576 0 0)
(0.4944484387 0 0)
(0.4944423185 0 0)
(0.494436202 0 0)
(0.4944300844 0 0)
(0.4944239699 0 0)
(0.4944178539 0 0)
(0.4944117414 0 0)
(0.4944056274 0 0)
(0.4943995169 0 0)
(0.4943934046 0 0)
(0.4943872839 0 0)
(0.4943811068 0 0)
(0.4943748815 0 0)
(0.4943689128 0 0)
(0.4943632789 0 0)
(0.4943573785 0 0)
(0.49435078 0 0)
(0.4943435392 0 0)
(0.4943370872 0 0)
(0.4943318428 0 0)
(0.4943260994 0 0)
(0.4943191794 0 0)
(0.494312568 0 0)
(0.4943070301 0 0)
(0.4943016997 0 0)
(0.4942959189 0 0)
(0.4942898225 0 0)
(0.4942836791 0 0)
(0.4942775768 0 0)
(0.4942714971 0 0)
(0.4942654235 0 0)
(0.4942593488 0 0)
(0.4942532756 0 0)
(0.4942472024 0 0)
(0.4942411318 0 0)
(0.4942350617 0 0)
(0.494228994 0 0)
(0.4942229267 0 0)
(0.4942168621 0 0)
(0.4942107982 0 0)
(0.4942047365 0 0)
(0.4941986759 0 0)
(0.4941926174 0 0)
(0.4941865602 0 0)
(0.4941805048 0 0)
(0.4941744509 0 0)
(0.4941683986 0 0)
(0.4941623478 0 0)
(0.4941562989 0 0)
(0.4941502518 0 0)
(0.494144202 0 0)
(0.494138125 0 0)
(0.4941319889 0 0)
(0.4941258907 0 0)
(0.4941199493 0 0)
(0.4941139112 0 0)
(0.4941074908 0 0)
(0.4941012053 0 0)
(0.4940952023 0 0)
(0.4940886802 0 0)
(0.4940820248 0 0)
(0.4940780422 0 0)
(0.4940766291 0 0)
(0.4940725522 0 0)
(0.4940625916 0 0)
(0.4940531239 0 0)
(0.4940470585 0 0)
(0.4940416142 0 0)
(0.4940357613 0 0)
(0.4940297219 0 0)
(0.4940236882 0 0)
(0.4940176791 0 0)
(0.4940116784 0 0)
(0.4940056785 0 0)
(0.4939996805 0 0)
(0.4939936835 0 0)
(0.4939876889 0 0)
(0.4939816953 0 0)
(0.4939757043 0 0)
(0.4939697145 0 0)
(0.4939637274 0 0)
(0.4939577414 0 0)
(0.4939517588 0 0)
(0.4939457779 0 0)
(0.4939397936 0 0)
(0.493933775 0 0)
(0.493927677 0 0)
(0.4939216269 0 0)
(0.4939158202 0 0)
(0.4939103922 0 0)
(0.4939041914 0 0)
(0.493897322 0 0)
(0.4938917545 0 0)
(0.4938859215 0 0)
(0.4938789172 0 0)
(0.4938727401 0 0)
(0.4938676691 0 0)
(0.4938624733 0 0)
(0.4938561173 0 0)
(0.4938497512 0 0)
(0.4938441135 0 0)
(0.4938384832 0 0)
(0.4938325938 0 0)
(0.493826624 0 0)
(0.4938206675 0 0)
(0.4938147039 0 0)
(0.4938096545 0 0)
(0.4938072883 0 0)
(0.4938063721 0 0)
(0.4938041691 0 0)
(0.493797926 0 0)
(0.4937858275 0 0)
(0.4937733831 0 0)
(0.4937658628 0 0)
(0.493760252 0 0)
(0.4937543758 0 0)
(0.4937484531 0 0)
(0.4937429182 0 0)
(0.4937375745 0 0)
(0.4937315214 0 0)
(0.4937267009 0 0)
(0.4937266263 0 0)
(0.4937263891 0 0)
(0.4937228179 0 0)
(0.4937153764 0 0)
(0.4937033776 0 0)
(0.4936908395 0 0)
(0.4936838451 0 0)
(0.4936819456 0 0)
(0.4936822049 0 0)
(0.4936800933 0 0)
(0.4936722841 0 0)
(0.4936593142 0 0)
(0.4936580099 0 0)
(0.4936580769 0 0)
(0.4936497754 0 0)
(0.4936336924 0 0)
(0.4936248108 0 0)
(0.4936195163 0 0)
(0.4936136902 0 0)
(0.4936073254 0 0)
(0.4936016801 0 0)
(0.4935975033 0 0)
(0.4935969146 0 0)
(0.4935970412 0 0)
(0.4935939393 0 0)
(0.4935857252 0 0)
(0.4935718564 0 0)
(0.493561018 0 0)
(0.4935547839 0 0)
(0.4935495211 0 0)
(0.4935438374 0 0)
(0.4935379014 0 0)
(0.4935318724 0 0)
(0.4935259492 0 0)
(0.4935206525 0 0)
(0.4935153249 0 0)
(0.4935089902 0 0)
(0.4935027858 0 0)
(0.4934970643 0 0)
(0.493491383 0 0)
(0.4934855803 0 0)
(0.4934797566 0 0)
(0.493473931 0 0)
(0.4934681201 0 0)
(0.4934623018 0 0)
(0.4934564952 0 0)
(0.4934506818 0 0)
(0.4934448792 0 0)
(0.4934390743 0 0)
(0.4934332867 0 0)
(0.4934274442 0 0)
(0.4934215799 0 0)
(0.4934156501 0 0)
(0.493409972 0 0)
(0.4934051345 0 0)
(0.4933997407 0 0)
(0.4933929689 0 0)
(0.4933866981 0 0)
(0.4933810524 0 0)
(0.4933763845 0 0)
(0.4933758199 0 0)
(0.4933758096 0 0)
(0.4933722152 0 0)
(0.4933657643 0 0)
(0.4933568784 0 0)
(0.4933494592 0 0)
(0.4933480857 0 0)
(0.4933416685 0 0)
(0.4933261794 0 0)
(0.4933158644 0 0)
(0.4933101391 0 0)
(0.4933048098 0 0)
(0.4932989903 0 0)
(0.4932937394 0 0)
(0.4932915501 0 0)
(0.4932916565 0 0)
(0.4932890859 0 0)
(0.4932802619 0 0)
(0.493263964 0 0)
(0.4932501384 0 0)
(0.4932398852 0 0)
(0.4932291675 0 0)
(0.4932164122 0 0)
(0.4932008776 0 0)
(0.493182291 0 0)
(0.4931584613 0 0)
(0.4931288402 0 0)
(0.4930901088 0 0)
(0.493040568 0 0)
(0.4929742698 0 0)
(0.4928876088 0 0)
(0.4927713969 0 0)
(0.4926174957 0 0)
(0.4924097468 0 0)
(0.4921338078 0 0)
(0.4917663972 0 0)
(0.4912865452 0 0)
(0.490667515 0 0)
(0.489905836 0 0)
(0.4890478681 0 0)
(0.488211078 0 0)
(0.488261306 0 0)
(0.4902466237 0 0)
(0.4976495909 0 0)
(0.5164570316 0 0)
(0.556090584 0 0)
(0.6310308688 0 0)
(0.763763632 0 0)
(0.9649683845 0 0)
(1.210823826 0 0)
(1.461318932 0 0)
(1.68852513 0 0)
(1.881656066 0 0)
(2.039159751 0 0)
(2.163673665 0 0)
(2.259927483 0 0)
(2.333885038 0 0)
(2.391268785 0 0)
(2.436534073 0 0)
(2.472602583 0 0)
(2.501539216 0 0)
(2.52496434 0 0)
(2.544159016 0 0)
(2.560074033 0 0)
(2.573401914 0 0)
(2.584658223 0 0)
(2.594235404 0 0)
(2.602439958 0 0)
(2.609510098 0 0)
(2.615642952 0 0)
(2.620993898 0 0)
(2.625691763 0 0)
(2.629836868 0 0)
(2.633508588 0 0)
(2.636773921 0 0)
(2.639692732 0 0)
(2.64231176 0 0)
(2.644670657 0 0)
(2.646801989 0 0)
(2.648734872 0 0)
(2.650493235 0 0)
(2.652097802 0 0)
(2.653565034 0 0)
(2.654910141 0 0)
(2.65614686 0 0)
(2.657287365 0 0)
(2.658340465 0 0)
(2.659314294 0 0)
(2.660217113 0 0)
(2.661055742 0 0)
(2.661835434 0 0)
(2.662561794 0 0)
(2.663239487 0 0)
(2.663872724 0 0)
(2.664465202 0 0)
(2.665020099 0 0)
(2.665540473 0 0)
(2.666029044 0 0)
(2.666488361 0 0)
(2.666920637 0 0)
(2.667327966 0 0)
(2.667712168 0 0)
(2.66807502 0 0)
(2.66841813 0 0)
(2.668742696 0 0)
(2.669050335 0 0)
(2.669342365 0 0)
(2.669619758 0 0)
(2.66988368 0 0)
(2.670134806 0 0)
(2.670374189 0 0)
(2.670602785 0 0)
(2.670820992 0 0)
(2.671029648 0 0)
(2.671229604 0 0)
(2.671421053 0 0)
(2.671604523 0 0)
(2.6717809 0 0)
(2.67195043 0 0)
(2.672113145 0 0)
(2.67226976 0 0)
(2.672420901 0 0)
(2.672566527 0 0)
(2.672706716 0 0)
(2.672842046 0 0)
(2.672973 0 0)
(2.673099468 0 0)
(2.673221377 0 0)
(2.673339178 0 0)
(2.67345337 0 0)
(2.673563996 0 0)
(2.673670931 0 0)
(2.673774243 0 0)
(2.673874347 0 0)
(2.673971516 0 0)
(2.674065821 0 0)
(2.674157096 0 0)
(2.67424536 0 0)
(2.674330914 0 0)
(2.67441408 0 0)
(2.674494934 0 0)
(2.674573487 0 0)
(2.674649623 0 0)
(2.674723449 0 0)
(2.674795188 0 0)
(2.674865056 0 0)
(2.674933101 0 0)
(2.674999401 0 0)
(2.675063846 0 0)
(2.675126405 0 0)
(2.675187242 0 0)
(2.675246611 0 0)
(2.67530455 0 0)
(2.675361137 0 0)
(2.675416384 0 0)
(2.675470282 0 0)
(2.675522723 0 0)
(2.675573847 0 0)
(2.675623798 0 0)
(2.675672698 0 0)
(2.675720541 0 0)
(2.675767396 0 0)
(2.675813262 0 0)
(2.675858155 0 0)
(2.675901978 0 0)
(2.675944805 0 0)
(2.67598673 0 0)
(2.676027869 0 0)
(2.676068205 0 0)
(2.676107789 0 0)
(2.676146607 0 0)
(2.676184721 0 0)
(2.676222101 0 0)
(2.676258732 0 0)
(2.67629456 0 0)
(2.676329708 0 0)
(2.676364218 0 0)
(2.676398145 0 0)
(2.676431455 0 0)
(2.676464197 0 0)
(2.676496347 0 0)
(2.676527959 0 0)
(2.67655901 0 0)
(2.676589525 0 0)
(2.676619425 0 0)
(2.676648752 0 0)
(2.676677541 0 0)
(2.676705874 0 0)
(2.676733724 0 0)
(2.676761133 0 0)
(2.676788068 0 0)
(2.676814575 0 0)
(2.676840628 0 0)
(2.676866271 0 0)
(2.676891483 0 0)
(2.676916307 0 0)
(2.67694068 0 0)
(2.676964602 0 0)
(2.676988077 0 0)
(2.677011199 0 0)
(2.677033948 0 0)
(2.677056362 0 0)
(2.677078408 0 0)
(2.677100123 0 0)
(2.677121481 0 0)
(2.677142519 0 0)
(2.67716321 0 0)
(2.677183592 0 0)
(2.677203639 0 0)
(2.677223393 0 0)
(2.677242826 0 0)
(2.677261942 0 0)
(2.677280682 0 0)
(2.677299113 0 0)
(2.677317248 0 0)
(2.677335127 0 0)
(2.677352717 0 0)
(2.677370051 0 0)
(2.677387098 0 0)
(2.677403893 0 0)
(2.677420408 0 0)
(2.677436677 0 0)
(2.67745267 0 0)
(2.677468421 0 0)
(2.677483904 0 0)
(2.677499152 0 0)
(2.67751414 0 0)
(2.677528901 0 0)
(2.677543413 0 0)
(2.677557687 0 0)
(2.67757167 0 0)
(2.677585407 0 0)
(2.677598903 0 0)
(2.677612198 0 0)
(2.677625263 0 0)
(2.677638127 0 0)
(2.677650763 0 0)
(2.677663202 0 0)
(2.677675417 0 0)
(2.677687437 0 0)
(2.677699239 0 0)
(2.67771085 0 0)
(2.677722247 0 0)
(2.677733457 0 0)
(2.677744457 0 0)
(2.677755275 0 0)
(2.677765889 0 0)
(2.677776326 0 0)
(2.677786565 0 0)
(2.677796632 0 0)
(2.677806508 0 0)
(2.677816221 0 0)
(2.677825745 0 0)
(2.677835086 0 0)
(2.677844219 0 0)
(2.677853189 0 0)
(2.677861992 0 0)
(2.677870654 0 0)
(2.677879153 0 0)
(2.677887511 0 0)
(2.677895711 0 0)
(2.677903774 0 0)
(2.677911682 0 0)
(2.677919458 0 0)
(2.677927085 0 0)
(2.677934583 0 0)
(2.677941936 0 0)
(2.677949166 0 0)
(2.677956256 0 0)
(2.677963226 0 0)
(2.677970062 0 0)
(2.677976784 0 0)
(2.677983376 0 0)
(2.677989858 0 0)
(2.677996216 0 0)
(2.67800247 0 0)
(2.678008605 0 0)
(2.678014642 0 0)
(2.678020566 0 0)
(2.678026397 0 0)
(2.678032124 0 0)
(2.678037763 0 0)
(2.678043306 0 0)
(2.678048769 0 0)
(2.678054132 0 0)
(2.678059396 0 0)
(2.678064562 0 0)
(2.678069661 0 0)
(2.678074688 0 0)
(2.678079656 0 0)
(2.678084555 0 0)
(2.678089398 0 0)
(2.678094178 0 0)
(2.678098908 0 0)
(2.67810358 0 0)
(2.678108206 0 0)
(2.678112781 0 0)
(2.678117314 0 0)
(2.678121801 0 0)
(2.678126252 0 0)
(2.678130662 0 0)
(2.67813504 0 0)
(2.678139383 0 0)
(2.6781437 0 0)
(2.678147985 0 0)
(2.678152249 0 0)
(2.678156488 0 0)
(2.678160709 0 0)
(2.678164911 0 0)
(2.678169099 0 0)
(2.678173273 0 0)
(2.678177438 0 0)
(2.678181593 0 0)
(2.678185745 0 0)
(2.678189891 0 0)
(2.678194038 0 0)
(2.678198186 0 0)
(2.678202339 0 0)
(2.678206498 0 0)
(2.678210669 0 0)
(2.678214847 0 0)
(2.678219025 0 0)
(2.678223203 0 0)
(2.678227393 0 0)
(2.678231604 0 0)
(2.678235838 0 0)
(2.678240094 0 0)
(2.678244375 0 0)
(2.67824868 0 0)
(2.678253011 0 0)
(2.678257368 0 0)
(2.678261752 0 0)
(2.678266165 0 0)
(2.678270605 0 0)
(2.678275074 0 0)
(2.678279572 0 0)
(2.6782841 0 0)
(2.678288657 0 0)
(2.678293245 0 0)
(2.678297862 0 0)
(2.67830251 0 0)
(2.678307186 0 0)
(2.678311893 0 0)
(2.678316629 0 0)
(2.678321395 0 0)
(2.678326189 0 0)
(2.678331013 0 0)
(2.678335863 0 0)
(2.678340744 0 0)
(2.678345649 0 0)
(2.678350583 0 0)
(2.678355541 0 0)
(2.678360527 0 0)
(2.678365536 0 0)
(2.678370571 0 0)
(2.678375628 0 0)
(2.678380712 0 0)
(2.678385821 0 0)
(2.678390964 0 0)
(2.678396132 0 0)
(2.678401323 0 0)
(2.678406529 0 0)
(2.678411754 0 0)
(2.678416991 0 0)
(2.678422244 0 0)
(2.678427504 0 0)
(2.678432777 0 0)
(2.678438053 0 0)
(2.678443339 0 0)
(2.678448624 0 0)
(2.678453914 0 0)
(2.6784592 0 0)
(2.678464487 0 0)
(2.678469765 0 0)
(2.678475041 0 0)
(2.678480304 0 0)
(2.678485559 0 0)
(2.678490798 0 0)
(2.678496026 0 0)
(2.678501234 0 0)
(2.678506426 0 0)
(2.678511592 0 0)
(2.67851674 0 0)
(2.678521859 0 0)
(2.678526954 0 0)
(2.678532017 0 0)
(2.678537052 0 0)
(2.678542051 0 0)
(2.678547019 0 0)
(2.678551946 0 0)
(2.678556839 0 0)
(2.678561688 0 0)
(2.678566499 0 0)
(2.678571263 0 0)
(2.678575985 0 0)
(2.678580657 0 0)
(2.678585284 0 0)
(2.678589858 0 0)
(2.678594384 0 0)
(2.678598855 0 0)
(2.678603274 0 0)
(2.678607636 0 0)
(2.678611944 0 0)
(2.678616192 0 0)
(2.678620384 0 0)
(2.678624514 0 0)
(2.678628586 0 0)
(2.678632594 0 0)
(2.678636542 0 0)
(2.678640425 0 0)
(2.678644245 0 0)
(2.678648 0 0)
(2.678651691 0 0)
(2.678655315 0 0)
(2.678658874 0 0)
(2.678662366 0 0)
(2.678665792 0 0)
(2.67866915 0 0)
(2.678672442 0 0)
(2.678675666 0 0)
(2.678678824 0 0)
(2.678681915 0 0)
(2.678684941 0 0)
(2.678687901 0 0)
(2.678690797 0 0)
(2.67869363 0 0)
(2.6786964 0 0)
(2.678699109 0 0)
(2.678701759 0 0)
(2.678704352 0 0)
(2.678706888 0 0)
(2.678709372 0 0)
(2.678711803 0 0)
(2.678714187 0 0)
(2.678716522 0 0)
(2.678718823 0 0)
(2.678721071 0 0)
(2.678723285 0 0)
(2.678725443 0 0)
(2.678727533 0 0)
(2.678729539 0 0)
(2.678731453 0 0)
(2.678733234 0 0)
(2.678734921 0 0)
(2.678736385 0 0)
(2.678739688 0 0)
(2.678741402 0 0)
(2.67874462 0 0)
(2.678748245 0 0)
(2.678747014 0 0)
(2.678745601 0 0)
(2.678745767 0 0)
(2.678747122 0 0)
(2.678751836 0 0)
(2.678754985 0 0)
(2.678752152 0 0)
(2.678749294 0 0)
(2.678750093 0 0)
(2.678750919 0 0)
(2.678756089 0 0)
(2.678756468 0 0)
(2.678757016 0 0)
(2.678758554 0 0)
(2.678756265 0 0)
(2.678761093 0 0)
(2.67876429 0 0)
(2.678761501 0 0)
(2.67875862 0 0)
(2.678760228 0 0)
(2.678760632 0 0)
(2.678760755 0 0)
(2.67876279 0 0)
(2.678768101 0 0)
(2.678770453 0 0)
(2.678771093 0 0)
(2.678771147 0 0)
(2.678767764 0 0)
(2.678769555 0 0)
(2.678771449 0 0)
(2.678772789 0 0)
(2.678777955 0 0)
(2.678781387 0 0)
(2.678781734 0 0)
(2.678782109 0 0)
(2.678778647 0 0)
(2.678778789 0 0)
(2.678777304 0 0)
(2.678774884 0 0)
(2.678773053 0 0)
(2.678771866 0 0)
(2.678775268 0 0)
(2.678768939 0 0)
(2.678766902 0 0)
(2.678770358 0 0)
(2.678763799 0 0)
(2.678762181 0 0)
(2.678765466 0 0)
(2.678759697 0 0)
(2.678756189 0 0)
(2.67875945 0 0)
(2.678761451 0 0)
(2.678759135 0 0)
(2.678754485 0 0)
(2.67875932 0 0)
(2.678761506 0 0)
(2.678755765 0 0)
(2.678754643 0 0)
(2.678751509 0 0)
(2.678751103 0 0)
(2.678750864 0 0)
(2.678751471 0 0)
(2.67875593 0 0)
(2.678749977 0 0)
(2.678750681 0 0)
(2.678752142 0 0)
(2.678752128 0 0)
(2.67875648 0 0)
(2.678753291 0 0)
(2.678753532 0 0)
(2.678755869 0 0)
(2.678750313 0 0)
(2.678752376 0 0)
(2.678754262 0 0)
(2.678755318 0 0)
(2.678755468 0 0)
(2.678754283 0 0)
(2.6787539 0 0)
(2.678750427 0 0)
(2.678751625 0 0)
(2.67875072 0 0)
(2.678757892 0 0)
(2.678763883 0 0)
(2.678760277 0 0)
(2.678763622 0 0)
(2.678764783 0 0)
(2.678766715 0 0)
(2.678771021 0 0)
(2.678768021 0 0)
(2.678775653 0 0)
(2.678775862 0 0)
(2.678775391 0 0)
(2.678780009 0 0)
(2.678775997 0 0)
(2.678782704 0 0)
(2.678790548 0 0)
(2.678786813 0 0)
(2.678791666 0 0)
(2.678794666 0 0)
(2.678798931 0 0)
(2.67880504 0 0)
(2.678803285 0 0)
(2.678815521 0 0)
(2.67881635 0 0)
(2.678819913 0 0)
(2.678826488 0 0)
(2.678823573 0 0)
(2.678835119 0 0)
(2.678846475 0 0)
(2.678845735 0 0)
(2.678853877 0 0)
(2.678863935 0 0)
(2.678859593 0 0)
(2.678863663 0 0)
(2.678876345 0 0)
(2.678863768 0 0)
(2.678870378 0 0)
(2.678885096 0 0)
(2.678875952 0 0)
(2.678855896 0 0)
(2.678883956 0 0)
(2.678904319 0 0)
(2.678904027 0 0)
(2.67902243 0 0)
(2.678825905 0 0)
)
;

boundaryField
{
    inlet
    {
        type            fixedValue;
        value           uniform (0.495955 0 0);
    }
    outlet
    {
        type            pressureInletOutletVelocity;
        value           uniform (2.678825905 0 0);
    }
    upperWall
    {
        type            empty;
    }
    lowerWall
    {
        type            empty;
    }
    frontAndBack
    {
        type            empty;
    }
}


// ************************************************************************* //
