/*--------------------------------*- C++ -*----------------------------------*\
  =========                 |
  \\      /  F ield         | OpenFOAM: The Open Source CFD Toolbox
   \\    /   O peration     | Website:  https://openfoam.org
    \\  /    A nd           | Version:  9
     \\/     M anipulation  |
\*---------------------------------------------------------------------------*/
FoamFile
{
    format      ascii;
    class       volScalarField;
    location    "0.019";
    object      W;
}
// * * * * * * * * * * * * * * * * * * * * * * * * * * * * * * * * * * * * * //

dimensions      [1 0 0 0 -1 0 0];

internalField   nonuniform List<scalar> 
1000
(
0.02419365664
0.02419365664
0.02419365664
0.02419365664
0.02419365664
0.02419365664
0.02419365664
0.02419365664
0.02419365664
0.02419365664
0.02419365664
0.02419365664
0.02419365664
0.02419365664
0.02419365664
0.02419365664
0.02419365664
0.02419365664
0.02419365664
0.02419365664
0.02419365664
0.02419365664
0.02419365664
0.02419365664
0.02419365664
0.02419365664
0.02419365664
0.02419365664
0.02419365664
0.02419365664
0.02419365664
0.02419365664
0.02419365664
0.02419365664
0.02419365664
0.02419365664
0.02419365664
0.02419365664
0.02419365664
0.02419365664
0.02419365664
0.02419365664
0.02419365664
0.02419365664
0.02419365664
0.02419365664
0.02419365664
0.02419365664
0.02419365664
0.02419365664
0.02419365664
0.02419365664
0.02419365664
0.02419365664
0.02419365664
0.02419365664
0.02419365664
0.02419365664
0.02419365664
0.02419365664
0.02419365664
0.02419365664
0.02419365664
0.02419365664
0.02419365664
0.02419365664
0.02419365664
0.02419365664
0.02419365664
0.02419365664
0.02419365664
0.02419365664
0.02419365664
0.02419365664
0.02419365664
0.02419365664
0.02419365664
0.02419365664
0.02419365664
0.02419365664
0.02419365664
0.02419365664
0.02419365664
0.02419365664
0.02419365664
0.02419365664
0.02419365664
0.02419365664
0.02419365664
0.02419365664
0.02419365664
0.02419365664
0.02419365664
0.02419365664
0.02419365664
0.02419365664
0.02419365664
0.02419365664
0.02419365664
0.02419365664
0.02419365664
0.02419365664
0.02419365664
0.02419365664
0.02419365664
0.02419365664
0.02419365664
0.02419365664
0.02419365664
0.02419365664
0.02419365664
0.02419365664
0.02419365664
0.02419365664
0.02419365664
0.02419365664
0.02419365664
0.02419365664
0.02419365664
0.02419365664
0.02419365664
0.02419365664
0.02419365664
0.02419365664
0.02419365664
0.02419365664
0.02419365664
0.02419365664
0.02419365664
0.02419365664
0.02419365664
0.02419365664
0.02419365664
0.02419365664
0.02419365664
0.02419365664
0.02419365664
0.02419365664
0.02419365664
0.02419365664
0.02419365664
0.02419365664
0.02419365664
0.02419365664
0.02419365664
0.02419365664
0.02419365664
0.02419365664
0.02419365664
0.02419365664
0.02419365664
0.02419365664
0.02419365664
0.02419365664
0.02419365664
0.02419365664
0.02419365664
0.02419365664
0.02419365664
0.02419365664
0.02419365664
0.02419365664
0.02419365664
0.02419365664
0.02419365664
0.02419365664
0.02419365664
0.02419365664
0.02419365664
0.02419365664
0.02419365664
0.02419365664
0.02419365664
0.02419365664
0.02419365664
0.02419365664
0.02419365664
0.02419365664
0.02419365664
0.02419365664
0.02419365664
0.02419365664
0.02419365664
0.02419365664
0.02419365664
0.02419365664
0.02419365664
0.02419365664
0.02419365664
0.02419365664
0.02419365664
0.02419365664
0.02419365664
0.02419365664
0.02419365664
0.02419365664
0.02419365664
0.02419365664
0.02419365664
0.02419365664
0.02419365664
0.02419365664
0.02419365664
0.02419365664
0.02419365664
0.02419365664
0.02419365664
0.02419365664
0.02419365664
0.02419365664
0.02419365664
0.02419365664
0.02419365664
0.02419365664
0.02419365664
0.02419365664
0.02419365664
0.02419365664
0.02419365664
0.02419365664
0.02419365664
0.02419365664
0.02419365664
0.02419365664
0.02419365664
0.02419365664
0.02419365664
0.02419365664
0.02419365664
0.02419365664
0.02419365664
0.02419365664
0.02419365664
0.02419365664
0.02419365664
0.02419365664
0.02419365664
0.02419365664
0.02419365664
0.02419365664
0.02419365664
0.02419365664
0.02419365664
0.02419365664
0.02419365664
0.02419365664
0.02419365664
0.02419365664
0.02419365664
0.02419365664
0.02419365664
0.02419365664
0.02419365664
0.02419365664
0.02419365664
0.02419365664
0.02419365664
0.02419365664
0.02419365664
0.02419365664
0.02419365664
0.02419365664
0.02419365664
0.02419365664
0.02419365664
0.02419365664
0.02419365664
0.02419365664
0.02419365664
0.02419365664
0.02419365664
0.02419365664
0.02419365664
0.02419365664
0.02419365664
0.02419365664
0.02419365664
0.02419365664
0.02419365664
0.02419365664
0.02419365664
0.02419365664
0.02419365664
0.02419365664
0.02419365664
0.02419365664
0.02419365664
0.02419365664
0.02419365664
0.02419365664
0.02419365664
0.02419365664
0.02419365664
0.02419365664
0.02419365664
0.02419365664
0.02419365664
0.02419365664
0.02419365664
0.02419365664
0.02419365664
0.02419365664
0.02419365664
0.02419365664
0.02419365664
0.02419365664
0.02419365664
0.02419365664
0.02419365664
0.02419365664
0.02419365664
0.02419365664
0.02419365664
0.02419365664
0.02419365664
0.02419365664
0.02419365664
0.02419365664
0.02419365664
0.02419365664
0.02419365664
0.02419365664
0.02419365664
0.02419365664
0.02419365664
0.02419365664
0.02419365664
0.02419365664
0.02419365664
0.02419365664
0.02419365664
0.02419365664
0.02419365664
0.02419365664
0.02419365664
0.02419365664
0.02419365664
0.02419365664
0.02419365664
0.02419365664
0.02419365664
0.02419365664
0.02419365664
0.02419365664
0.02419365664
0.02419365664
0.02419365664
0.02419365664
0.02419365664
0.02419365664
0.02419365664
0.02419365664
0.02419365664
0.02419365664
0.02419365664
0.02419365664
0.02419365664
0.02419365664
0.02419365664
0.02419365664
0.02419365664
0.02419365664
0.02419365664
0.02419365664
0.02419365664
0.02419365664
0.02419365664
0.02419365664
0.02419365664
0.02419365664
0.02419365664
0.02419365664
0.02419365664
0.02419365664
0.02419365664
0.02419365664
0.02419365664
0.02419365664
0.02419365664
0.02419365664
0.02419365664
0.02419365664
0.02419365664
0.02419365664
0.02419365664
0.02419365664
0.02419365664
0.02419365664
0.02419365664
0.02419365664
0.02419365664
0.02419365664
0.02419365664
0.02419365664
0.02419365664
0.02419365664
0.02419365664
0.02419365664
0.02419365664
0.02419365664
0.02419365664
0.02419365664
0.02419365664
0.02419365664
0.02419365664
0.02419365664
0.02419365665
0.02419365665
0.02419365665
0.02419365665
0.02419365665
0.02419365666
0.02419365666
0.02419365667
0.02419365668
0.0241936567
0.02419365671
0.02419365674
0.02419365677
0.02419365682
0.02419365689
0.02419365697
0.02419365709
0.02419365725
0.02419365747
0.02419365776
0.02419365816
0.02419365869
0.02419365942
0.02419366041
0.02419366175
0.02419366357
0.02419366603
0.02419366936
0.02419367388
0.02419368001
0.02419368831
0.02419369957
0.02419371483
0.0241937355
0.02419376353
0.02419380151
0.024193853
0.02419392277
0.02419401735
0.02419414553
0.02419431925
0.02419455471
0.02419487382
0.0241953063
0.02419589243
0.02419668677
0.02419776325
0.02419922205
0.02420119892
0.02420387772
0.02420750757
0.02421242586
0.02421908941
0.0242281756
0.02424049609
0.02425717844
0.02427975606
0.02431029518
0.02435177066
0.02440776974
0.02448350579
0.02458511168
0.02472023982
0.0248962113
0.02511577248
0.02537035996
0.02563914446
0.02588806717
0.02608015687
0.02621553959
0.02629617154
0.02633699475
0.02634918663
0.02634773437
0.02634465514
0.02634545081
0.02635077676
0.02635962857
0.02636994296
0.02638043765
0.02639029907
0.02639931724
0.02640745472
0.02641475854
0.02642130136
0.02642716082
0.02643239379
0.02643709603
0.0264413115
0.02644511143
0.0264485265
0.02645161636
0.02645441492
0.02645694792
0.02645924898
0.02646134361
0.02646325293
0.02646499584
0.02646658928
0.0264680484
0.02646938674
0.02647061642
0.02647174735
0.02647278769
0.0264737488
0.02647463866
0.02647546384
0.02647622752
0.02647693972
0.02647760489
0.02647822449
0.02647880713
0.02647935337
0.02647986826
0.02648035472
0.02648081446
0.02648125154
0.02648166621
0.02648206218
0.0264824397
0.02648280106
0.02648314759
0.0264834794
0.02648379962
0.02648410569
0.02648440156
0.02648468636
0.02648496033
0.02648522542
0.02648548021
0.02648572608
0.02648596395
0.02648619239
0.0264864126
0.02648662543
0.0264868301
0.02648702705
0.02648721723
0.02648740064
0.02648757627
0.0264877457
0.02648790909
0.02648806626
0.02648821686
0.02648836206
0.02648850206
0.02648863691
0.026488766
0.02648889051
0.02648901071
0.02648912679
0.02648923855
0.02648934612
0.02648945021
0.02648955099
0.02648964864
0.02648974315
0.0264898344
0.02648992305
0.02649000923
0.02649009307
0.02649017472
0.02649025395
0.0264903309
0.02649040601
0.02649047934
0.02649055098
0.026490621
0.02649068946
0.02649075594
0.026490821
0.02649088468
0.02649094701
0.02649100802
0.02649106774
0.0264911262
0.02649118315
0.0264912388
0.02649129328
0.02649134658
0.02649139872
0.02649144971
0.02649149956
0.02649154829
0.02649159574
0.02649164198
0.02649168715
0.02649173127
0.02649177433
0.02649181636
0.02649185737
0.02649189737
0.02649193639
0.02649197439
0.02649201121
0.02649204712
0.02649208215
0.02649211629
0.02649214958
0.02649218202
0.02649221365
0.02649224448
0.02649227453
0.02649230384
0.02649233231
0.02649235995
0.02649238692
0.02649241323
0.0264924389
0.02649246395
0.02649248839
0.02649251224
0.02649253552
0.02649255824
0.02649258042
0.02649260208
0.02649262325
0.02649264375
0.02649266377
0.02649268333
0.02649270246
0.02649272115
0.02649273941
0.02649275726
0.02649277471
0.02649279176
0.02649280841
0.02649282469
0.02649284061
0.02649285616
0.02649287137
0.02649288624
0.02649290064
0.02649291472
0.02649292851
0.02649294199
0.02649295519
0.0264929681
0.02649298074
0.0264929931
0.02649300521
0.02649301705
0.02649302865
0.02649304001
0.02649305114
0.02649306206
0.02649307276
0.02649308326
0.02649309358
0.02649310373
0.02649311362
0.02649312332
0.02649313285
0.02649314223
0.02649315145
0.02649316053
0.02649316947
0.02649317828
0.02649318697
0.02649319553
0.02649320399
0.02649321234
0.02649322059
0.02649322875
0.02649323682
0.02649324482
0.02649325273
0.02649326058
0.02649326837
0.0264932761
0.02649328379
0.02649329143
0.02649329903
0.02649330657
0.02649331404
0.0264933215
0.02649332894
0.02649333638
0.02649334381
0.02649335124
0.02649335867
0.02649336611
0.02649337355
0.02649338101
0.02649338848
0.02649339597
0.02649340348
0.02649341102
0.02649341858
0.02649342617
0.02649343379
0.02649344144
0.02649344913
0.02649345686
0.02649346462
0.02649347243
0.02649348028
0.02649348817
0.02649349611
0.0264935041
0.02649351214
0.02649352023
0.02649352837
0.02649353657
0.02649354482
0.02649355308
0.02649356139
0.02649356976
0.0264935782
0.02649358669
0.02649359524
0.02649360384
0.02649361251
0.02649362123
0.02649363001
0.02649363883
0.0264936477
0.02649365662
0.02649366559
0.02649367459
0.02649368363
0.0264936927
0.02649370181
0.02649371094
0.0264937201
0.02649372927
0.02649373847
0.02649374767
0.02649375688
0.0264937661
0.02649377532
0.02649378453
0.02649379373
0.02649380291
0.02649381208
0.02649382121
0.02649383032
0.0264938394
0.02649384843
0.02649385742
0.02649386637
0.02649387523
0.02649388401
0.02649389272
0.02649390136
0.02649390992
0.0264939184
0.02649392679
0.02649393508
0.02649394327
0.02649395134
0.02649395929
0.02649396711
0.02649397481
0.02649398236
0.02649398977
0.02649399704
0.02649400414
0.02649401108
0.02649401785
0.02649402444
0.02649403085
0.02649403708
0.0264940431
0.02649404893
0.02649405456
0.02649405997
0.02649406517
0.02649407014
0.02649407489
0.02649407941
0.0264940837
0.02649408775
0.02649409156
0.02649409512
0.02649409844
0.0264941015
0.02649410432
0.0264941067
0.02649410883
0.0264941107
0.02649411231
0.02649411367
0.02649411475
0.02649411558
0.02649411614
0.02649411643
0.02649411646
0.02649411622
0.02649411572
0.02649411495
0.02649411391
0.02649411261
0.02649411105
0.02649410922
0.02649410714
0.0264941048
0.02649410221
0.02649409937
0.02649409628
0.02649409295
0.02649408937
0.02649408556
0.02649408152
0.02649407726
0.02649407277
0.02649406807
0.02649406316
0.02649405805
0.02649405274
0.02649404723
0.02649404155
0.02649403568
0.02649402965
0.02649402345
0.0264940171
0.0264940106
0.02649400397
0.0264939972
0.0264939903
0.0264939833
0.02649397619
0.02649396898
0.02649396168
0.0264939543
0.02649394686
0.02649393935
0.02649393179
0.02649392419
0.02649391655
0.02649390889
0.02649390121
0.02649389353
0.02649388585
0.02649387819
0.02649387054
0.02649386293
0.02649385536
0.02649384784
0.02649384037
0.02649383297
0.02649382565
0.02649381841
0.02649381127
0.02649380423
0.02649379729
0.02649379048
0.02649378379
0.02649377723
0.02649377081
0.02649376455
0.02649375844
0.02649375249
0.02649374671
0.02649374111
0.02649373568
0.02649373045
0.02649372542
0.02649372058
0.02649371595
0.02649371153
0.02649370732
0.02649370334
0.02649369958
0.02649369604
0.02649369275
0.02649368969
0.02649368686
0.02649368429
0.02649368195
0.02649367987
0.02649367804
0.02649367645
0.02649367513
0.02649367406
0.02649367324
0.02649367269
0.02649367239
0.02649367234
0.02649367256
0.02649367304
0.02649367376
0.02649367476
0.02649367602
0.02649367754
0.02649367933
0.02649368136
0.02649368363
0.02649368613
0.02649368887
0.02649369184
0.02649369503
0.02649369843
0.02649370204
0.02649370585
0.02649370984
0.02649371401
0.02649371834
0.02649372281
0.02649372741
0.02649373211
0.02649373688
0.0264937417
0.0264937465
0.02649375125
0.02649375586
0.02649376025
0.02649376386
0.0264937672
0.02649377058
0.02649377399
0.02649377742
0.02649378086
0.0264937843
0.02649378775
0.0264937912
0.02649379463
0.02649379804
0.02649380143
0.02649380478
0.02649380809
0.02649381135
0.02649381456
0.02649381771
0.02649382078
0.02649382378
0.02649382669
0.02649382952
0.02649383224
0.02649383486
0.02649383736
0.02649383974
0.02649384199
0.0264938441
0.02649384607
0.02649384788
0.02649384954
0.02649385103
0.02649385234
0.02649385346
0.0264938544
0.02649385514
0.02649385566
0.02649385598
0.02649385606
0.02649385593
0.02649385555
0.0264938549
0.026493854
0.02649385284
0.02649385141
0.02649384969
0.02649384769
0.02649384539
0.02649384279
0.02649383987
0.02649383663
0.02649383307
0.02649382917
0.02649382492
0.02649382033
0.02649381537
0.02649381005
0.02649380435
0.02649379828
0.02649379181
0.02649378495
0.0264937777
0.02649377004
0.02649376197
0.0264937535
0.02649374461
0.02649373531
0.0264937256
0.02649371549
0.02649370499
0.0264936941
0.02649368284
0.02649367124
0.02649365931
0.02649364711
0.02649363467
0.02649362206
0.02649360935
0.02649359662
0.026493584
0.02649357163
0.02649355968
0.02649354835
0.02649353792
0.0264935287
0.02649352106
0.02649351547
0.02649351249
)
;

boundaryField
{
    inlet
    {
        type            calculated;
        value           uniform 0.02419365664;
    }
    outlet
    {
        type            calculated;
        value           uniform 0.02649351249;
    }
    upperWall
    {
        type            empty;
    }
    lowerWall
    {
        type            empty;
    }
    frontAndBack
    {
        type            empty;
    }
}


// ************************************************************************* //
