/*--------------------------------*- C++ -*----------------------------------*\
  =========                 |
  \\      /  F ield         | OpenFOAM: The Open Source CFD Toolbox
   \\    /   O peration     | Website:  https://openfoam.org
    \\  /    A nd           | Version:  9
     \\/     M anipulation  |
\*---------------------------------------------------------------------------*/
FoamFile
{
    format      ascii;
    class       volScalarField;
    location    "0.019";
    object      Yc;
}
// * * * * * * * * * * * * * * * * * * * * * * * * * * * * * * * * * * * * * //

dimensions      [0 0 0 0 0 0 0];

internalField   nonuniform List<scalar> 
1000
(
1.525280555e-28
0
0
3.636304723e-29
7.88447509e-29
8.557367127e-29
2.895363946e-28
5.596588647e-28
5.374129578e-28
3.165271456e-28
4.501530401e-28
4.762467623e-28
6.398394153e-28
8.21203372e-28
8.611301762e-28
9.220615432e-28
5.735013802e-28
5.552280391e-28
9.976550664e-28
1.068079244e-27
1.392204018e-27
1.046980292e-27
8.712180816e-28
1.146494156e-27
1.048408163e-27
9.958889483e-28
1.084092359e-27
4.315150442e-28
0
2.00621045e-28
6.18084663e-30
5.125077926e-29
1.472177459e-28
2.965417085e-28
5.59808245e-28
6.277698782e-28
8.923317634e-28
6.057723934e-28
3.875205051e-28
2.134901368e-28
2.614750557e-28
2.427656506e-28
6.059444167e-28
9.902261033e-28
1.259568151e-27
9.288618017e-28
5.245203885e-28
4.019600913e-28
0
7.522706548e-29
2.572526351e-28
2.081564284e-28
9.000406482e-28
1.100103466e-27
1.024183602e-27
1.036363558e-27
1.004160209e-27
6.361745493e-28
4.388272995e-28
5.275275313e-28
4.519912766e-28
7.295493479e-28
3.115898912e-28
2.807705372e-28
5.821904862e-28
7.218911854e-28
9.820823019e-28
1.003198723e-27
7.792791153e-28
6.697483889e-28
4.235405893e-28
3.558066279e-28
0
3.569498789e-28
9.823656291e-28
1.252524345e-27
1.041196158e-27
8.178464587e-28
8.423487226e-28
7.956567072e-28
9.10067564e-28
4.218887854e-28
5.292769067e-28
6.080697046e-28
8.138219434e-28
1.349908765e-27
1.312540816e-27
1.385069934e-27
1.137649481e-27
8.738669827e-28
5.01888894e-28
4.282384982e-28
6.261475082e-28
9.851240499e-28
9.78922464e-28
8.88662117e-28
8.940718882e-28
9.812953306e-28
9.805810929e-28
7.043363452e-28
9.598192067e-28
1.235051755e-27
7.909104181e-28
1.173175074e-27
1.155287923e-27
1.000441725e-27
1.013341009e-27
9.985856212e-28
8.641968672e-28
9.059045643e-28
6.889931436e-28
7.59427748e-28
9.179448742e-28
8.933233798e-28
9.741940423e-28
8.269298187e-28
7.171676607e-28
9.86442321e-28
9.771579787e-28
1.404477204e-27
1.201079161e-27
6.379720312e-28
4.306468624e-28
2.360671163e-28
3.376103567e-28
6.771575158e-28
9.047257154e-28
3.155393788e-28
3.008677476e-28
3.891608216e-28
3.011235539e-28
3.595186025e-28
1.057723083e-27
1.348312475e-27
1.694579656e-27
1.32812335e-27
1.374011784e-27
1.17032156e-27
1.095823711e-27
7.005861975e-28
7.419999288e-28
1.07016884e-27
1.133973152e-27
1.110081411e-27
1.321005431e-27
1.217941188e-27
1.218556782e-27
1.020793322e-27
1.292144547e-27
5.464312534e-28
7.320342713e-28
7.257552855e-28
1.762600314e-27
1.685539072e-27
1.218683574e-27
1.278820256e-27
1.551268851e-27
1.914525447e-27
2.62274434e-27
2.640809529e-27
2.597334885e-27
2.394841761e-27
1.97594375e-27
1.568277049e-27
1.266395976e-27
1.22693536e-27
1.23724485e-27
1.15770125e-27
1.425092674e-27
1.438064921e-27
1.554655261e-27
1.694472612e-27
1.593267165e-27
1.642714032e-27
1.477912644e-27
1.371308399e-27
1.309294267e-27
1.372397874e-27
1.331008238e-27
1.41603591e-27
8.167564302e-28
7.272792243e-28
7.855899533e-28
1.123359143e-27
1.862080181e-27
2.221490772e-27
2.157708956e-27
2.099860615e-27
1.848161347e-27
1.852843318e-27
1.264414536e-27
1.150464873e-27
9.572160951e-28
9.83465207e-28
8.180268082e-28
1.042907446e-27
8.123061127e-28
8.731944155e-28
8.521534857e-28
8.011127431e-28
6.67067664e-28
4.126928135e-28
5.515069538e-28
4.061502479e-28
1.350531088e-28
3.016852356e-28
8.516637716e-28
1.261005841e-27
1.607216584e-27
1.598312145e-27
1.45589943e-27
1.638739917e-27
1.700927409e-27
1.297497038e-27
1.526714317e-27
1.591950653e-27
1.655635061e-27
1.995620444e-27
2.13384395e-27
1.76865538e-27
1.290965097e-27
1.473100613e-27
1.443154343e-27
1.354753462e-27
1.291684063e-27
1.273317498e-27
1.299902493e-27
1.458859462e-27
1.345897288e-27
1.147778688e-27
1.393902979e-27
1.15805768e-27
1.029665097e-27
1.275104068e-27
1.259968297e-27
1.233495962e-27
9.481222691e-28
1.166756481e-27
8.960583496e-28
8.287961707e-28
1.325279518e-27
1.921498599e-27
2.220919734e-27
2.107595055e-27
1.913632685e-27
1.486290195e-27
1.403010674e-27
1.458472633e-27
1.548348714e-27
2.343590414e-27
2.44007536e-27
2.326673185e-27
2.100407502e-27
1.548161446e-27
1.062563858e-27
7.913975078e-28
9.727690556e-28
1.487996945e-27
1.334365e-27
1.438933894e-27
1.237149242e-27
1.488043422e-27
1.355075464e-27
1.393549888e-27
1.101730444e-27
8.947031163e-28
5.832610442e-28
1.100464128e-27
1.215300476e-27
1.090320057e-27
1.00489559e-27
9.609736408e-28
1.374873637e-27
1.529871663e-27
1.710011437e-27
1.884027677e-27
1.670411242e-27
1.7472776e-27
1.541665331e-27
1.403254166e-27
2.019097891e-27
2.538958961e-27
2.198892631e-27
2.307038552e-27
2.079466745e-27
1.635555113e-27
1.642747152e-27
1.447331312e-27
2.03336091e-27
1.69136975e-27
1.905507124e-27
1.817199842e-27
1.604149238e-27
1.42055192e-27
1.248381274e-27
1.007191372e-27
1.062835979e-27
1.041875992e-27
8.878067783e-28
6.695752629e-28
7.386611524e-28
9.081735509e-28
1.12521851e-27
1.1980953e-27
1.200593001e-27
9.557226392e-28
1.030113389e-27
7.157495674e-28
8.201952927e-28
9.142089877e-28
9.280920111e-28
1.104243057e-27
1.102257867e-27
1.408898487e-27
1.605265938e-27
1.810246682e-27
1.540140177e-27
1.786466965e-27
9.997848478e-28
1.372446581e-27
1.308249728e-27
9.929946514e-28
9.682263108e-28
8.244701549e-28
9.537096669e-28
9.025598096e-28
1.021114134e-27
9.565865725e-28
7.021890352e-28
7.388890907e-28
1.210100764e-27
1.57601737e-27
1.453004499e-27
1.320995769e-27
1.245072637e-27
1.668249988e-27
1.742043424e-27
1.63733579e-27
2.040184739e-27
1.898206938e-27
1.93430474e-27
1.967653482e-27
1.698195593e-27
1.999429269e-27
1.969851901e-27
2.020409829e-27
2.066564069e-27
2.089086705e-27
2.038645889e-27
1.575846548e-27
1.54170091e-27
1.460281843e-27
1.968020113e-27
2.074850387e-27
1.993616163e-27
2.143751384e-27
1.979545985e-27
1.655889875e-27
1.731958087e-27
1.517722488e-27
1.825196242e-27
2.327595134e-27
2.961314949e-27
3.224352529e-27
3.48477682e-27
4.180901731e-27
5.723923282e-27
7.891083449e-27
1.065728371e-26
1.471855489e-26
2.014780744e-26
2.702283807e-26
3.697550043e-26
5.036767795e-26
6.819136649e-26
9.228933928e-26
1.256222086e-25
1.707042218e-25
2.31760539e-25
3.146913001e-25
4.264410293e-25
5.787760692e-25
7.839096158e-25
1.062603257e-24
1.44138319e-24
1.95394823e-24
2.650068699e-24
3.593847093e-24
4.874195822e-24
6.611432203e-24
8.968354411e-24
1.216365371e-23
1.649818503e-23
2.237628068e-23
3.034751735e-23
4.115846738e-23
5.581939095e-23
7.570143248e-23
1.026626647e-22
1.392230444e-22
1.887998965e-22
2.560251848e-22
3.471812257e-22
4.707834936e-22
6.383770793e-22
8.656144157e-22
1.173717735e-21
1.591457151e-21
2.157836095e-21
2.925729324e-21
3.966818931e-21
5.378277125e-21
7.291833243e-21
9.886059215e-21
1.340302762e-20
1.817088806e-20
2.463448531e-20
3.339687936e-20
4.527569918e-20
6.137971153e-20
8.321313497e-20
1.128184604e-19
1.529739722e-19
2.074722423e-19
2.815271011e-19
3.824060069e-19
5.205083009e-19
7.11432106e-19
9.804325055e-19
1.372995502e-18
1.981552425e-18
3.015499109e-18
4.98835438e-18
9.101905451e-18
1.822551641e-17
3.945152998e-17
9.03878719e-17
2.149043184e-16
5.225357545e-16
1.2871106e-15
3.193682708e-15
7.956866162e-15
1.986936682e-14
4.968016025e-14
1.243066831e-13
3.111536518e-13
7.789923179e-13
1.950314039e-12
4.882454148e-12
1.222056059e-11
3.057926513e-11
7.649196273e-11
1.912645932e-10
4.780440889e-10
1.194285591e-09
2.982319217e-09
7.444063896e-09
1.85730747e-08
4.632172159e-08
1.15484003e-07
2.878074557e-07
6.964807636e-07
1.660953484e-06
3.942899141e-06
9.367698001e-06
2.233109317e-05
5.349554081e-05
0.0001287700065
0.0003108722992
0.0007483969743
0.001774830419
0.004059302547
0.008717071349
0.01676075754
0.0284262725
0.04263839431
0.05788500814
0.07300521395
0.08677473233
0.0980554278
0.1064272156
0.1122231542
0.1161045709
0.1187024756
0.1204925791
0.1217762539
0.122736543
0.1234817427
0.1240778247
0.124566161
0.1249737186
0.1253188164
0.1256144219
0.1258699106
0.1260924894
0.1262876504
0.1264598255
0.1266125203
0.1267486274
0.1268705418
0.1269802358
0.1270793596
0.1271693042
0.1272512461
0.1273261825
0.1273949615
0.1274583056
0.1275168328
0.127571074
0.1276214825
0.1276684394
0.1277122755
0.1277532805
0.1277917078
0.1278277661
0.1278616442
0.127893511
0.1279235064
0.1279517631
0.1279783939
0.1280035028
0.1280271852
0.1280495261
0.1280706076
0.1280905029
0.1281092832
0.1281270142
0.1281437583
0.1281595771
0.1281745257
0.1281886635
0.1282020394
0.1282147051
0.1282267093
0.1282380961
0.1282489117
0.1282591963
0.1282689885
0.1282783277
0.1282872481
0.1282957804
0.1283039561
0.128311803
0.1283193452
0.1283266069
0.1283336114
0.1283403762
0.1283469185
0.1283532548
0.1283594002
0.1283653656
0.1283711615
0.1283767983
0.1283822858
0.12838763
0.1283928365
0.128397911
0.1284028596
0.1284076867
0.1284123953
0.1284169881
0.1284214682
0.1284258392
0.1284301042
0.1284342649
0.1284383232
0.1284422814
0.1284461423
0.128449909
0.1284535842
0.1284571698
0.1284606678
0.1284640806
0.1284674112
0.1284706627
0.1284738387
0.1284769416
0.1284799737
0.1284829376
0.1284858362
0.1284886725
0.1284914496
0.1284941712
0.1284968397
0.1284994575
0.1285020268
0.12850455
0.1285070294
0.1285094675
0.1285118667
0.1285142296
0.1285165582
0.1285188539
0.1285211182
0.1285233525
0.1285255579
0.1285277359
0.1285298877
0.1285320147
0.1285341182
0.1285361994
0.1285382588
0.1285402969
0.1285423142
0.128544311
0.1285462878
0.1285482449
0.1285501828
0.1285521019
0.1285540028
0.1285558861
0.1285577521
0.1285596009
0.1285614325
0.1285632469
0.1285650442
0.1285668245
0.1285685879
0.1285703345
0.1285720644
0.1285737779
0.1285754753
0.128577157
0.1285788234
0.1285804746
0.1285821105
0.1285837312
0.1285853366
0.1285869268
0.1285885018
0.1285900617
0.1285916065
0.1285931362
0.1285946511
0.1285961511
0.1285976365
0.1285991074
0.128600564
0.1286020068
0.1286034355
0.1286048501
0.1286062506
0.1286076368
0.1286090087
0.1286103663
0.1286117093
0.1286130379
0.1286143518
0.1286156511
0.1286169356
0.1286182053
0.1286194603
0.1286207004
0.1286219256
0.1286231361
0.1286243317
0.1286255128
0.1286266792
0.1286278309
0.1286289677
0.1286300897
0.1286311966
0.1286322885
0.1286333652
0.1286344267
0.1286354729
0.1286365038
0.1286375194
0.1286385196
0.1286395045
0.1286404739
0.128641428
0.1286423667
0.1286432901
0.1286441983
0.1286450913
0.1286459692
0.1286468321
0.1286476802
0.1286485137
0.1286493326
0.1286501372
0.1286509274
0.1286517033
0.128652465
0.1286532126
0.1286539461
0.1286546658
0.1286553716
0.1286560637
0.1286567423
0.1286574074
0.1286580593
0.128658698
0.1286593238
0.1286599368
0.1286605371
0.128661125
0.1286617006
0.1286622642
0.1286628159
0.1286633561
0.1286638848
0.1286644024
0.1286649091
0.1286654052
0.128665891
0.1286663667
0.1286668327
0.1286672893
0.1286677368
0.1286681757
0.1286686063
0.1286690288
0.1286694435
0.1286698508
0.1286702509
0.1286706443
0.128671031
0.1286714117
0.1286717865
0.1286721557
0.1286725199
0.1286728792
0.1286732341
0.1286735848
0.1286739318
0.1286742754
0.128674616
0.1286749539
0.1286752894
0.1286756231
0.1286759551
0.1286762859
0.1286766159
0.1286769454
0.1286772748
0.1286776044
0.1286779346
0.1286782659
0.1286785984
0.1286789327
0.1286792691
0.1286796079
0.1286799496
0.1286802945
0.128680643
0.1286809954
0.1286813522
0.1286817136
0.1286820799
0.1286824513
0.1286828282
0.1286832107
0.1286835992
0.1286839937
0.1286843947
0.1286848023
0.1286852166
0.1286856379
0.1286860663
0.128686502
0.1286869452
0.1286873959
0.1286878543
0.1286883206
0.1286887948
0.1286892769
0.1286897672
0.1286902656
0.1286907721
0.1286912869
0.12869181
0.1286923413
0.1286928808
0.1286934286
0.1286939847
0.1286945489
0.1286951212
0.1286957016
0.1286962901
0.1286968864
0.1286974907
0.1286981028
0.1286987225
0.1286993498
0.1286999844
0.1287006261
0.1287012747
0.12870193
0.1287025917
0.1287032596
0.1287039335
0.128704613
0.1287052978
0.1287059877
0.1287066824
0.1287073815
0.1287080848
0.1287087919
0.1287095025
0.1287102161
0.1287109326
0.1287116515
0.1287123724
0.1287130951
0.128713819
0.1287145439
0.1287152694
0.1287159951
0.1287167205
0.1287174454
0.1287181693
0.1287188918
0.1287196125
0.1287203311
0.1287210472
0.1287217604
0.1287224702
0.1287231763
0.1287238784
0.128724576
0.1287252687
0.1287259563
0.1287266383
0.1287273143
0.1287279841
0.1287286472
0.1287293034
0.1287299522
0.1287305934
0.1287312266
0.1287318516
0.1287324679
0.1287330754
0.1287336738
0.1287342626
0.1287348418
0.128735411
0.1287359701
0.1287365186
0.1287370566
0.1287375836
0.1287380996
0.1287386043
0.1287390975
0.1287395792
0.1287400491
0.1287405071
0.1287409531
0.128741387
0.1287418086
0.1287422179
0.1287426148
0.1287429992
0.1287433712
0.1287437305
0.1287440774
0.1287444116
0.1287447333
0.1287450424
0.1287453389
0.128745623
0.1287458947
0.128746154
0.128746401
0.1287466358
0.1287468585
0.1287470692
0.1287472681
0.1287474553
0.128747631
0.1287477952
0.1287479483
0.1287480903
0.1287482214
0.1287483419
0.128748452
0.1287485519
0.1287486418
0.128748722
0.1287487927
0.1287488542
0.1287489067
0.1287489505
0.1287489859
0.128749013
0.1287490324
0.128749044
0.1287490484
0.1287490464
0.1287490381
0.1287490233
0.1287490022
0.1287489751
0.1287489424
0.1287489042
0.1287488607
0.1287488123
0.1287487589
0.1287487009
0.1287486383
0.1287485711
0.1287484993
0.128748423
0.1287483417
0.1287482554
0.1287481635
0.1287480652
0.1287479596
0.1287478453
0.1287477203
0.128747582
0.1287474547
0.12874734
0.1287472394
0.1287471545
0.1287470866
0.1287470373
0.1287470079
0.128747
0.1287470137
0.1287470525
0.1287471172
0.1287472085
0.1287473277
0.1287474762
0.1287476551
0.1287478659
0.1287481099
0.1287483884
0.1287487027
0.1287490543
0.1287494443
0.1287498743
0.1287503456
0.1287508596
0.1287514177
0.1287520213
0.1287526719
0.1287533708
0.1287541196
0.1287549198
0.1287557727
0.1287566799
0.128757643
0.1287586634
0.1287597428
0.1287608826
0.1287620845
0.1287633501
0.1287646809
0.1287660788
0.1287675453
0.1287690821
0.1287706908
0.1287723732
0.128774131
0.1287759658
0.1287778795
0.1287798737
0.1287819502
0.1287841108
0.1287863572
0.1287886911
0.1287911142
0.1287936282
0.1287962348
0.1287989355
0.1288017317
0.128804625
0.1288076165
0.1288107075
0.1288138988
0.1288171912
0.128820585
0.1288240803
0.1288276766
0.1288313731
0.128835168
0.1288390589
0.1288430423
0.1288471137
0.1288512668
0.1288554937
0.1288597844
0.128864126
0.1288685028
0.1288728949
0.1288772779
0.1288816217
0.1288858896
0.1288900364
0.1288940071
0.128897735
0.1289011386
0.1289041193
0.1289065577
0.1289083092
0.1289091989
)
;

boundaryField
{
    inlet
    {
        type            fixedValue;
        value           uniform 0;
    }
    outlet
    {
        type            zeroGradient;
    }
    upperWall
    {
        type            empty;
    }
    lowerWall
    {
        type            empty;
    }
    frontAndBack
    {
        type            empty;
    }
}


// ************************************************************************* //
