/*--------------------------------*- C++ -*----------------------------------*\
  =========                 |
  \\      /  F ield         | OpenFOAM: The Open Source CFD Toolbox
   \\    /   O peration     | Website:  https://openfoam.org
    \\  /    A nd           | Version:  9
     \\/     M anipulation  |
\*---------------------------------------------------------------------------*/
FoamFile
{
    format      ascii;
    class       volScalarField;
    location    "0.019";
    object      YcMax;
}
// * * * * * * * * * * * * * * * * * * * * * * * * * * * * * * * * * * * * * //

dimensions      [0 0 0 0 0 0 0];

internalField   nonuniform List<scalar> 
1000
(
0.128993062
0.128993062
0.128993062
0.128993062
0.128993062
0.128993062
0.128993062
0.128993062
0.128993062
0.128993062
0.128993062
0.128993062
0.128993062
0.128993062
0.128993062
0.128993062
0.128993062
0.128993062
0.128993062
0.128993062
0.128993062
0.128993062
0.128993062
0.128993062
0.128993062
0.128993062
0.128993062
0.128993062
0.128993062
0.128993062
0.128993062
0.128993062
0.128993062
0.128993062
0.128993062
0.128993062
0.128993062
0.128993062
0.128993062
0.128993062
0.128993062
0.128993062
0.128993062
0.128993062
0.128993062
0.128993062
0.128993062
0.128993062
0.128993062
0.128993062
0.128993062
0.128993062
0.128993062
0.128993062
0.128993062
0.128993062
0.128993062
0.128993062
0.128993062
0.128993062
0.128993062
0.128993062
0.128993062
0.128993062
0.128993062
0.128993062
0.128993062
0.128993062
0.128993062
0.128993062
0.128993062
0.128993062
0.128993062
0.128993062
0.128993062
0.128993062
0.128993062
0.128993062
0.128993062
0.128993062
0.128993062
0.128993062
0.128993062
0.128993062
0.128993062
0.128993062
0.128993062
0.128993062
0.128993062
0.128993062
0.128993062
0.128993062
0.128993062
0.128993062
0.128993062
0.128993062
0.128993062
0.128993062
0.128993062
0.128993062
0.128993062
0.128993062
0.128993062
0.128993062
0.128993062
0.128993062
0.128993062
0.128993062
0.128993062
0.128993062
0.128993062
0.128993062
0.128993062
0.128993062
0.128993062
0.128993062
0.128993062
0.128993062
0.128993062
0.128993062
0.128993062
0.128993062
0.128993062
0.128993062
0.128993062
0.128993062
0.128993062
0.128993062
0.128993062
0.128993062
0.128993062
0.128993062
0.128993062
0.128993062
0.128993062
0.128993062
0.128993062
0.128993062
0.128993062
0.128993062
0.128993062
0.128993062
0.128993062
0.128993062
0.128993062
0.128993062
0.128993062
0.128993062
0.128993062
0.128993062
0.128993062
0.128993062
0.128993062
0.128993062
0.128993062
0.128993062
0.128993062
0.128993062
0.128993062
0.128993062
0.128993062
0.128993062
0.128993062
0.128993062
0.128993062
0.128993062
0.128993062
0.128993062
0.128993062
0.128993062
0.128993062
0.128993062
0.128993062
0.128993062
0.128993062
0.128993062
0.128993062
0.128993062
0.128993062
0.128993062
0.128993062
0.128993062
0.128993062
0.128993062
0.128993062
0.128993062
0.128993062
0.128993062
0.128993062
0.128993062
0.128993062
0.128993062
0.128993062
0.128993062
0.128993062
0.128993062
0.128993062
0.128993062
0.128993062
0.128993062
0.128993062
0.128993062
0.128993062
0.128993062
0.128993062
0.128993062
0.128993062
0.128993062
0.128993062
0.128993062
0.128993062
0.128993062
0.128993062
0.128993062
0.128993062
0.128993062
0.128993062
0.128993062
0.128993062
0.128993062
0.128993062
0.128993062
0.128993062
0.128993062
0.128993062
0.128993062
0.128993062
0.128993062
0.128993062
0.128993062
0.128993062
0.128993062
0.128993062
0.128993062
0.128993062
0.128993062
0.128993062
0.128993062
0.128993062
0.128993062
0.128993062
0.128993062
0.128993062
0.128993062
0.128993062
0.128993062
0.128993062
0.128993062
0.128993062
0.128993062
0.128993062
0.128993062
0.128993062
0.128993062
0.128993062
0.128993062
0.128993062
0.128993062
0.128993062
0.128993062
0.128993062
0.128993062
0.128993062
0.128993062
0.128993062
0.128993062
0.128993062
0.128993062
0.128993062
0.128993062
0.128993062
0.128993062
0.128993062
0.128993062
0.128993062
0.128993062
0.128993062
0.128993062
0.128993062
0.128993062
0.128993062
0.128993062
0.128993062
0.128993062
0.128993062
0.128993062
0.128993062
0.128993062
0.128993062
0.128993062
0.128993062
0.128993062
0.128993062
0.128993062
0.128993062
0.128993062
0.128993062
0.128993062
0.128993062
0.128993062
0.128993062
0.128993062
0.128993062
0.128993062
0.128993062
0.128993062
0.128993062
0.128993062
0.128993062
0.128993062
0.128993062
0.128993062
0.128993062
0.128993062
0.128993062
0.128993062
0.128993062
0.128993062
0.128993062
0.128993062
0.128993062
0.128993062
0.128993062
0.128993062
0.128993062
0.128993062
0.128993062
0.128993062
0.128993062
0.128993062
0.128993062
0.128993062
0.128993062
0.128993062
0.128993062
0.128993062
0.128993062
0.128993062
0.128993062
0.128993062
0.128993062
0.128993062
0.128993062
0.128993062
0.128993062
0.128993062
0.128993062
0.128993062
0.128993062
0.128993062
0.128993062
0.128993062
0.128993062
0.128993062
0.128993062
0.128993062
0.128993062
0.128993062
0.128993062
0.128993062
0.128993062
0.128993062
0.128993062
0.128993062
0.128993062
0.128993062
0.128993062
0.128993062
0.128993062
0.128993062
0.128993062
0.128993062
0.128993062
0.128993062
0.128993062
0.128993062
0.128993062
0.128993062
0.128993062
0.128993062
0.128993062
0.128993062
0.128993062
0.128993062
0.128993062
0.128993062
0.128993062
0.128993062
0.128993062
0.128993062
0.128993062
0.128993062
0.128993062
0.128993062
0.128993062
0.128993062
0.128993062
0.128993062
0.128993062
0.128993062
0.128993062
0.128993062
0.128993062
0.128993062
0.128993062
0.1289930619
0.1289930619
0.1289930619
0.1289930618
0.1289930617
0.1289930616
0.1289930615
0.1289930613
0.1289930611
0.1289930607
0.1289930603
0.1289930597
0.1289930588
0.1289930577
0.1289930561
0.128993054
0.1289930512
0.1289930473
0.1289930421
0.128993035
0.1289930253
0.1289930123
0.1289929946
0.1289929706
0.1289929381
0.1289928941
0.1289928344
0.1289927535
0.1289926438
0.1289924952
0.1289922937
0.1289920206
0.1289916505
0.1289911489
0.128990469
0.1289895474
0.1289882985
0.1289866056
0.1289843112
0.1289812015
0.1289769868
0.1289712744
0.1289635323
0.1289530395
0.1289388188
0.1289195461
0.1288934272
0.128858031
0.1288100634
0.1287450615
0.128656979
0.1285376253
0.1283759075
0.1281568067
0.1278599998
0.1274580127
0.1269137475
0.126177238
0.125181451
0.1238340125
0.1220188201
0.1195847625
0.116345931
0.1120943182
0.1066640395
0.1000686119
0.09279273703
0.08603437714
0.08147407672
0.08072071739
0.08344366463
0.08880889704
0.09578605736
0.1033339167
0.1102410641
0.1157308204
0.1196758862
0.1223489217
0.1241153553
0.1252909883
0.1260905402
0.1266528405
0.1270603732
0.1273638803
0.1275951794
0.1277748409
0.1279166045
0.1280299488
0.1281215177
0.1281962248
0.1282576521
0.1283085569
0.1283510276
0.1283867171
0.1284169368
0.1284427219
0.128464902
0.1284841466
0.1285009958
0.1285158849
0.1285291649
0.1285411178
0.1285519699
0.1285619019
0.1285710538
0.1285795322
0.1285874217
0.1285947889
0.1286016835
0.1286081379
0.1286141804
0.1286198309
0.1286251012
0.1286300039
0.128634546
0.1286387351
0.1286425786
0.1286460834
0.1286492588
0.1286521139
0.1286546603
0.1286569102
0.1286588779
0.1286605791
0.12866203
0.1286632495
0.1286642546
0.1286650651
0.1286657002
0.1286661787
0.1286665204
0.1286667432
0.1286668653
0.1286669043
0.1286668812
0.1286668063
0.1286666925
0.1286665524
0.1286663969
0.1286662363
0.1286660792
0.1286659321
0.128665801
0.1286656909
0.1286656053
0.1286655464
0.1286655154
0.1286655147
0.1286655434
0.1286656009
0.1286656841
0.1286657915
0.1286659212
0.1286660706
0.128666237
0.1286664178
0.1286666104
0.1286668122
0.1286670208
0.1286672335
0.1286674481
0.1286676626
0.1286678753
0.1286680848
0.1286682897
0.1286684889
0.1286686816
0.1286688674
0.1286690461
0.1286692176
0.1286693823
0.1286695403
0.1286696922
0.1286698387
0.1286699805
0.1286701187
0.1286702544
0.1286703885
0.1286705221
0.1286706563
0.1286707921
0.1286709307
0.1286710731
0.1286712202
0.1286713732
0.1286715328
0.1286716998
0.1286718749
0.1286720586
0.1286722516
0.1286724543
0.1286726669
0.1286728899
0.1286731233
0.1286733674
0.1286736221
0.1286738874
0.1286741631
0.128674449
0.1286747451
0.1286750509
0.1286753663
0.1286756909
0.1286760244
0.1286763664
0.1286767165
0.1286770743
0.1286774394
0.1286778114
0.12867819
0.1286785746
0.1286789649
0.1286793606
0.1286797614
0.1286801668
0.1286805766
0.1286809905
0.1286814081
0.1286818291
0.1286822533
0.1286826805
0.1286831102
0.1286835424
0.1286839768
0.1286844132
0.1286848514
0.1286852911
0.1286857323
0.1286861747
0.128686618
0.1286870623
0.1286875071
0.1286879524
0.1286883979
0.1286888435
0.1286892888
0.1286897338
0.1286901782
0.1286906217
0.1286910643
0.1286915055
0.1286919453
0.1286923834
0.1286928196
0.1286932536
0.1286936851
0.1286941139
0.1286945397
0.1286949621
0.128695381
0.1286957958
0.1286962065
0.1286966133
0.1286970162
0.1286974147
0.1286978087
0.1286981981
0.1286985824
0.1286989617
0.1286993356
0.1286997039
0.1287000665
0.1287004231
0.1287007737
0.128701118
0.1287014558
0.1287017871
0.1287021117
0.1287024293
0.1287027401
0.1287030436
0.12870334
0.1287036291
0.1287039107
0.1287041848
0.1287044513
0.1287047101
0.1287049612
0.1287052045
0.1287054399
0.1287056674
0.1287058871
0.1287060987
0.1287063024
0.1287064981
0.1287066858
0.1287068656
0.1287070373
0.1287072011
0.1287073569
0.1287075048
0.1287076448
0.128707777
0.1287079015
0.1287080182
0.1287081272
0.1287082287
0.1287083227
0.1287084092
0.1287084885
0.1287085606
0.1287086256
0.1287086836
0.1287087349
0.1287087794
0.1287088174
0.128708849
0.1287088744
0.1287088937
0.1287089072
0.1287089149
0.1287089171
0.1287089143
0.128708906
0.1287088929
0.1287088751
0.128708853
0.1287088267
0.1287087966
0.1287087629
0.1287087258
0.1287086856
0.1287086427
0.1287085973
0.1287085496
0.1287085001
0.1287084489
0.1287083964
0.1287083429
0.1287082887
0.1287082342
0.1287081796
0.1287081254
0.1287080717
0.128708019
0.1287079675
0.1287079177
0.1287078698
0.1287078242
0.1287077812
0.1287077412
0.1287077044
0.1287076712
0.1287076419
0.1287076169
0.1287075964
0.1287075808
0.1287075704
0.1287075655
0.1287075664
0.1287075733
0.1287075871
0.1287076076
0.1287076351
0.1287076699
0.1287077122
0.1287077624
0.1287078206
0.1287078872
0.1287079623
0.1287080461
0.128708139
0.1287082411
0.1287083526
0.1287084736
0.1287086044
0.1287087452
0.128708896
0.128709057
0.1287092284
0.1287094102
0.1287096026
0.1287098057
0.1287100194
0.1287102439
0.1287104793
0.1287107255
0.1287109826
0.1287112506
0.1287115294
0.128711819
0.1287121195
0.1287124307
0.1287127526
0.1287130851
0.1287134281
0.1287137815
0.1287141452
0.128714519
0.1287149027
0.1287152963
0.1287156996
0.1287161123
0.1287165342
0.1287169651
0.1287174049
0.1287178532
0.1287183098
0.1287187744
0.1287192467
0.1287197265
0.1287202134
0.1287207072
0.1287212075
0.128721714
0.1287222264
0.1287227442
0.1287232672
0.1287237949
0.128724327
0.1287248632
0.128725403
0.128725946
0.1287264919
0.1287270402
0.1287275906
0.1287281426
0.1287286958
0.1287292498
0.1287298042
0.1287303586
0.1287309125
0.1287314655
0.1287320173
0.1287325673
0.1287331153
0.1287336607
0.1287342031
0.1287347422
0.1287352775
0.1287358087
0.1287363353
0.1287368569
0.1287373732
0.1287378838
0.1287383883
0.1287388864
0.1287393776
0.1287398617
0.1287403383
0.128740807
0.1287412676
0.1287417196
0.1287421629
0.1287425972
0.128743022
0.1287434372
0.1287438426
0.1287442377
0.1287446225
0.1287449967
0.12874536
0.1287457123
0.1287460534
0.1287463831
0.1287467012
0.1287470077
0.1287473022
0.1287475848
0.1287478552
0.1287481135
0.1287483595
0.1287485932
0.1287488144
0.1287490232
0.1287492195
0.1287494032
0.1287495745
0.1287497332
0.1287498795
0.1287500133
0.1287501347
0.1287502437
0.1287503405
0.128750425
0.1287504974
0.1287505579
0.1287506065
0.1287506433
0.1287506685
0.1287506824
0.1287506845
0.1287506764
0.1287506564
0.1287506256
0.1287505843
0.1287505327
0.128750471
0.1287503995
0.1287503185
0.1287502283
0.128750129
0.1287500209
0.1287499045
0.1287497799
0.1287496475
0.1287495077
0.1287493608
0.1287492071
0.128749047
0.128748881
0.1287487095
0.1287485329
0.1287483519
0.1287481669
0.1287479787
0.1287477882
0.1287475964
0.128747402
0.1287472054
0.1287470068
0.1287468067
0.1287466053
0.1287464032
0.1287462006
0.1287459979
0.1287457956
0.128745594
0.1287453935
0.1287451946
0.1287449976
0.1287448031
0.1287446114
0.1287444229
0.1287442381
0.1287440574
0.1287438812
0.12874371
0.1287435442
0.1287433842
0.1287432305
0.1287430835
0.1287429437
0.1287428115
0.1287426874
0.1287425718
0.1287424651
0.1287423679
0.1287422805
0.1287422035
0.1287421373
0.1287420823
0.128742039
0.1287420079
0.1287419895
0.1287419845
0.1287419922
0.128742015
0.1287420527
0.1287421055
0.1287421738
0.1287422581
0.1287423589
0.1287424765
0.1287426116
0.1287427646
0.1287429359
0.128743126
0.1287433354
0.1287435646
0.128743814
0.1287440841
0.1287443753
0.128744688
0.1287450227
0.1287453797
0.1287457595
0.1287461624
0.1287465888
0.1287470388
0.1287475127
0.1287480107
0.1287485329
0.1287490791
0.1287496494
0.1287502434
0.1287508607
0.1287515005
0.1287521619
0.1287528437
0.1287535442
0.1287542612
0.128754992
0.128755733
0.12875648
0.1287572276
0.1287579689
0.1287586959
0.1287593982
0.1287600634
0.1287606764
0.1287612185
0.1287616673
0.1287619955
0.1287621705
)
;

boundaryField
{
    inlet
    {
        type            calculated;
        value           uniform 0.128993062;
    }
    outlet
    {
        type            calculated;
        value           uniform 0.1287621705;
    }
    upperWall
    {
        type            empty;
    }
    lowerWall
    {
        type            empty;
    }
    frontAndBack
    {
        type            empty;
    }
}


// ************************************************************************* //
