/*--------------------------------*- C++ -*----------------------------------*\
  =========                 |
  \\      /  F ield         | OpenFOAM: The Open Source CFD Toolbox
   \\    /   O peration     | Website:  https://openfoam.org
    \\  /    A nd           | Version:  9
     \\/     M anipulation  |
\*---------------------------------------------------------------------------*/
FoamFile
{
    format      ascii;
    class       volScalarField;
    location    "0.019";
    object      YcV;
}
// * * * * * * * * * * * * * * * * * * * * * * * * * * * * * * * * * * * * * //

dimensions      [0 0 0 0 0 0 0];

internalField   nonuniform List<scalar> 
1000
(
2.440575217e-65
8.495782863e-65
1.431137705e-64
1.930393937e-64
2.356896676e-64
2.731091874e-64
3.079176286e-64
3.426188804e-64
3.861181191e-64
4.25137992e-64
4.58851449e-64
4.857796074e-64
5.10791185e-64
5.235919196e-64
5.108392889e-64
4.874039206e-64
4.69204305e-64
4.663991758e-64
4.670071646e-64
4.719167358e-64
4.902047235e-64
5.172544954e-64
5.512751674e-64
5.920137942e-64
6.391096565e-64
6.905883822e-64
7.43385669e-64
7.966146941e-64
8.509001435e-64
9.034570215e-64
9.478916051e-64
9.710968568e-64
9.689139266e-64
9.668212822e-64
9.642946525e-64
9.527033613e-64
9.528262415e-64
9.528217779e-64
9.618749649e-64
9.962853193e-64
1.038757248e-63
1.039014469e-63
1.021605745e-63
1.012211719e-63
1.011733991e-63
1.012284989e-63
1.020289906e-63
1.05538443e-63
1.158272646e-63
1.437785405e-63
2.206814614e-63
4.369905734e-63
1.034131259e-62
2.552831914e-62
5.933486691e-62
1.030543768e-61
1.460781855e-61
1.837384862e-61
2.17241731e-61
2.468523329e-61
2.738705915e-61
3.010353876e-61
3.328811121e-61
3.652961307e-61
3.955222944e-61
4.229722385e-61
4.489356863e-61
4.739710336e-61
4.98659411e-61
5.239311972e-61
5.517104605e-61
5.840106615e-61
6.269357444e-61
6.714619001e-61
7.163118531e-61
7.584041883e-61
8.050767954e-61
8.549985208e-61
8.658970209e-61
8.462971741e-61
8.259770805e-61
8.235682354e-61
8.394982357e-61
8.852242039e-61
9.419240898e-61
9.959384797e-61
1.043277249e-60
1.088832338e-60
1.108042626e-60
1.094591976e-60
1.074429884e-60
1.069438663e-60
1.069270539e-60
1.068789379e-60
1.066968639e-60
1.052436296e-60
1.036154866e-60
1.026482956e-60
1.016439104e-60
9.995337791e-61
9.84997866e-61
9.652088978e-61
9.453221868e-61
9.312549144e-61
9.207353655e-61
9.159432128e-61
9.043645344e-61
9.004363665e-61
9.022935002e-61
9.127783142e-61
9.30314708e-61
9.677206078e-61
1.05711872e-60
1.289443569e-60
1.899324871e-60
3.487652162e-60
7.548170405e-60
1.75147248e-59
4.072627237e-59
6.919564364e-59
9.854117348e-59
1.264022922e-58
1.533385566e-58
1.784241816e-58
2.020638581e-58
2.257484715e-58
2.539720492e-58
2.813614927e-58
3.07524691e-58
3.319187267e-58
3.552542791e-58
3.770150449e-58
3.975666314e-58
4.175316012e-58
4.385193529e-58
4.615087743e-58
4.913512456e-58
5.231419068e-58
5.592668466e-58
5.948925978e-58
6.316907854e-58
6.658657179e-58
6.790902135e-58
6.874598941e-58
6.980370674e-58
7.234589618e-58
7.694974661e-58
8.225491788e-58
8.805436765e-58
9.261804019e-58
9.649868278e-58
1.009653861e-57
1.066461404e-57
1.05883598e-57
1.054832102e-57
1.058258555e-57
1.063001117e-57
1.072521119e-57
1.046474935e-57
1.00880475e-57
9.731456177e-58
9.400559238e-58
9.131807761e-58
8.942043599e-58
8.838348223e-58
8.756656631e-58
8.636954915e-58
8.677149038e-58
8.649860646e-58
8.79718046e-58
9.041155105e-58
8.99447067e-58
8.852803024e-58
8.70486917e-58
8.570789896e-58
8.645859611e-58
9.317234378e-58
1.156359625e-57
1.744552425e-57
3.180920418e-57
6.559758969e-57
1.4184826e-56
3.194255416e-56
5.352904472e-56
7.788601218e-56
1.031796878e-55
1.292205109e-55
1.54621722e-55
1.789735802e-55
2.019777342e-55
2.238712375e-55
2.441048306e-55
2.628057475e-55
2.802568692e-55
2.970203978e-55
3.135904104e-55
3.305189175e-55
3.485881671e-55
3.693492034e-55
3.951591635e-55
4.322490342e-55
4.755162607e-55
5.262759674e-55
5.788212473e-55
6.253822539e-55
6.536080987e-55
6.434758135e-55
6.058869051e-55
5.583134622e-55
5.071766554e-55
4.516833342e-55
3.835438574e-55
3.183713033e-55
2.933106645e-55
2.94307876e-55
3.140165834e-55
3.468768093e-55
3.890243907e-55
4.452284037e-55
5.046845742e-55
5.41365054e-55
5.32457619e-55
5.051796653e-55
4.682853994e-55
4.305532703e-55
3.891215973e-55
3.379922398e-55
2.818124228e-55
2.372248637e-55
1.969709184e-55
1.624442658e-55
1.337711516e-55
1.084711492e-55
1.076416091e-55
1.089556224e-55
1.413182297e-55
2.975673064e-55
1.311808881e-55
2.104158326e-56
6.524714064e-57
4.403212348e-57
4.148178562e-57
4.172688753e-57
3.920031724e-57
1.154666035e-57
6.129407029e-57
3.26564991e-54
4.004511317e-54
4.528803667e-54
4.642501909e-54
7.188545672e-54
7.764415178e-54
8.171105889e-54
8.257226333e-54
9.010456428e-54
9.180246513e-54
9.298997864e-54
9.323999179e-54
9.421340628e-54
9.443032742e-54
9.458894282e-54
9.459271129e-54
9.548119279e-54
9.641299976e-54
1.452206154e-53
2.396825009e-53
3.0346017e-53
3.566281559e-53
8.648913523e-53
2.168401908e-53
8.113578564e-54
6.050185994e-54
5.802470938e-54
5.765070186e-54
5.793407242e-54
5.645959555e-54
4.064965814e-54
6.913412788e-54
1.909261185e-51
2.340414493e-51
2.646309049e-51
2.712749081e-51
4.292904504e-51
4.65030943e-51
4.902834687e-51
4.95627924e-51
5.418879584e-51
5.523133472e-51
5.596031389e-51
5.611373648e-51
5.672161937e-51
5.685731334e-51
5.694641657e-51
5.697608601e-51
6.563859345e-51
6.763798361e-51
1.039959895e-50
1.129003187e-50
1.258581606e-50
2.419890303e-50
6.94695217e-50
1.653493911e-50
5.970752893e-51
4.373214161e-51
4.187084499e-51
4.159732398e-51
4.18395747e-51
4.0767377e-51
2.918612839e-51
5.006310414e-51
1.39756264e-48
1.713139867e-48
1.937027856e-48
1.985652225e-48
3.141652471e-48
3.403090898e-48
3.587805617e-48
3.626890715e-48
3.962832534e-48
4.038529932e-48
4.09145059e-48
4.102586894e-48
4.146667213e-48
4.156505594e-48
4.16296633e-48
4.165114611e-48
4.79205051e-48
4.936762977e-48
7.587465742e-48
8.237340154e-48
9.196364373e-48
1.799786524e-47
5.522649877e-47
1.268932223e-47
4.439725292e-48
3.19399706e-48
3.048198961e-48
3.027041057e-48
3.043852786e-48
2.966234212e-48
2.129377766e-48
3.637358104e-48
1.00898836e-45
1.236796037e-45
1.398443997e-45
1.433475696e-45
2.225118325e-45
2.404110496e-45
2.530500847e-45
2.557290968e-45
2.816442266e-45
2.874869717e-45
2.915822915e-45
2.924433312e-45
2.958343646e-45
2.965867265e-45
2.967231346e-45
2.97366402e-45
4.165614113e-45
4.503357868e-45
7.078094326e-45
1.177450825e-44
1.617340763e-44
2.919538012e-44
1.572878409e-43
2.669058728e-44
6.813436908e-45
3.911045746e-45
3.659016786e-45
3.625730249e-45
3.701745394e-45
3.480279902e-45
1.713219934e-45
8.151610356e-45
3.171851078e-42
3.899156334e-42
6.695358525e-42
8.062723541e-42
7.788638648e-42
1.430854121e-41
2.122637022e-41
8.113439996e-42
4.446655469e-42
3.94584144e-42
3.970769013e-42
3.975306231e-42
5.801400004e-42
6.017289337e-42
3.232693015e-42
9.340749201e-42
1.108587164e-39
1.790611382e-39
1.702900395e-39
2.525380477e-39
4.026355617e-39
5.876341001e-39
7.931436482e-39
4.296311617e-39
3.037126433e-39
1.871115781e-39
2.21009191e-39
2.544559297e-39
8.01826034e-39
1.18129898e-37
1.483712672e-36
9.006837201e-36
3.772498505e-35
1.284784959e-34
3.989705077e-34
1.187520036e-33
3.476513695e-33
1.012261301e-32
2.943699723e-32
8.561303681e-32
2.491044663e-31
7.251410708e-31
2.110416571e-30
6.139176943e-30
1.785180046e-29
5.189712765e-29
1.508432082e-28
4.383616967e-28
1.273655241e-27
3.699707124e-27
1.074398779e-26
3.119176423e-26
9.053037783e-26
2.62690602e-25
7.621134242e-25
2.210862423e-24
6.4139358e-24
1.861103784e-23
5.402140899e-23
1.568825804e-22
4.558816872e-22
1.325674573e-21
3.857844947e-21
1.123474498e-20
3.273776365e-20
9.543957185e-20
2.782923617e-19
8.114224831e-19
2.365016659e-18
6.888586977e-18
2.00452325e-17
5.826006607e-17
1.690939489e-16
4.900372255e-16
1.417914946e-15
4.096334353e-15
1.181659985e-14
3.40398392e-14
9.793498091e-14
2.81453202e-13
8.080803626e-13
2.318141168e-12
6.645249993e-12
1.903746485e-11
5.450857834e-11
1.559922384e-10
4.462127579e-10
1.066185283e-09
2.327396507e-09
4.80979878e-09
9.479239524e-09
1.769012744e-08
3.117306233e-08
5.140632253e-08
8.078877554e-08
1.289783063e-07
2.316476078e-07
4.772967058e-07
1.029728457e-06
2.069542335e-06
3.185245063e-06
3.214777283e-06
3.363019182e-06
3.586242936e-06
3.419940775e-06
2.54054845e-06
1.509561853e-06
7.446922853e-07
2.347982628e-07
0
0
0
0
0
0
0
0
0
0
0
0
0
0
7.363425275e-11
4.888083033e-10
6.907751053e-10
7.789454848e-10
8.240319743e-10
8.492316228e-10
8.633181006e-10
8.711187998e-10
8.755705227e-10
8.790201391e-10
8.80940145e-10
8.741573764e-10
8.538493256e-10
8.358745374e-10
8.2548016e-10
8.171174965e-10
7.996518829e-10
7.886851025e-10
7.817667469e-10
7.686536255e-10
7.614783708e-10
7.516006482e-10
7.432351865e-10
7.354026262e-10
7.257485769e-10
7.17698984e-10
7.083905787e-10
7.012039585e-10
6.937900901e-10
6.873340096e-10
6.823699266e-10
6.767569766e-10
6.741669781e-10
6.683279104e-10
6.645905207e-10
6.610818589e-10
6.566600072e-10
6.537775515e-10
6.490673513e-10
6.442253992e-10
6.407943025e-10
6.361818932e-10
6.319687397e-10
6.292040252e-10
6.261598207e-10
6.229735114e-10
6.210485963e-10
6.19956219e-10
6.177352211e-10
6.161482804e-10
6.155329408e-10
6.148743257e-10
6.131213143e-10
6.11610985e-10
6.107154452e-10
6.097781982e-10
6.072665258e-10
6.045664542e-10
6.023612462e-10
6.006642926e-10
5.988312728e-10
5.966447325e-10
5.947841663e-10
5.93517219e-10
5.928082864e-10
5.922744624e-10
5.915267023e-10
5.910350554e-10
5.909977003e-10
5.913722581e-10
5.920008451e-10
5.922669578e-10
5.92071962e-10
5.918509542e-10
5.918470044e-10
5.920895438e-10
5.925129882e-10
5.927501895e-10
5.921313527e-10
5.911327058e-10
5.901356089e-10
5.893101396e-10
5.88728431e-10
5.883844756e-10
5.881821707e-10
5.878810199e-10
5.875701981e-10
5.87390368e-10
5.874152161e-10
5.876614813e-10
5.881619952e-10
5.888647047e-10
5.896792001e-10
5.904180649e-10
5.910684348e-10
5.917614082e-10
5.92572322e-10
5.935408715e-10
5.94681203e-10
5.959841532e-10
5.974111876e-10
5.988764197e-10
6.002081934e-10
6.012333613e-10
6.021332508e-10
6.030194038e-10
6.039595999e-10
6.049934932e-10
6.061414932e-10
6.074087672e-10
6.087848961e-10
6.10238345e-10
6.117031035e-10
6.130519159e-10
6.142452153e-10
6.153821e-10
6.165248318e-10
6.177109788e-10
6.189603026e-10
6.202775806e-10
6.216515353e-10
6.230489113e-10
6.244012014e-10
6.255790227e-10
6.263449018e-10
6.262756893e-10
6.247444164e-10
6.219238774e-10
6.183637466e-10
6.1434577e-10
6.100600118e-10
6.056341978e-10
6.011535046e-10
5.966737862e-10
5.922301978e-10
5.878424129e-10
5.835170177e-10
5.792470644e-10
5.750080237e-10
5.707482742e-10
5.663704303e-10
5.616966039e-10
5.568583391e-10
5.519460889e-10
5.470208596e-10
5.421235144e-10
5.372811362e-10
5.325113714e-10
5.278253918e-10
5.232298961e-10
5.187284439e-10
5.143222987e-10
5.100108881e-10
5.057919021e-10
5.016609826e-10
4.97610821e-10
4.936293064e-10
4.896960209e-10
4.857758047e-10
4.818070308e-10
4.778130445e-10
4.738275279e-10
4.698729947e-10
4.659643093e-10
4.621111027e-10
4.583194241e-10
4.545928776e-10
4.50933396e-10
4.473417739e-10
4.438180272e-10
4.403616407e-10
4.369717276e-10
4.336471337e-10
4.303864861e-10
4.271882012e-10
4.240504303e-10
4.209709266e-10
4.179467695e-10
4.149738538e-10
4.12045941e-10
4.091529339e-10
4.062777213e-10
4.033904353e-10
4.004741678e-10
3.97552715e-10
3.94642073e-10
3.917528846e-10
3.888921166e-10
3.86064216e-10
3.832718998e-10
3.805167026e-10
3.77799348e-10
3.751200083e-10
3.724784779e-10
3.698742971e-10
3.673068326e-10
3.647753372e-10
3.622789852e-10
3.598169018e-10
3.573881779e-10
3.549918834e-10
3.52627071e-10
3.502927792e-10
3.479880273e-10
3.45711806e-10
3.434630542e-10
3.412406199e-10
3.39043185e-10
3.368691344e-10
3.34716315e-10
3.325816048e-10
3.304601307e-10
3.283438553e-10
3.262190121e-10
3.240614558e-10
3.218840234e-10
3.196976546e-10
3.175096577e-10
3.153248465e-10
3.13146313e-10
3.109760202e-10
3.088149388e-10
3.066638112e-10
3.045229716e-10
3.023924827e-10
3.002722295e-10
2.98161983e-10
2.960614447e-10
2.939702759e-10
2.918881192e-10
2.898146114e-10
2.877493937e-10
2.856921177e-10
2.836424496e-10
2.816000723e-10
2.79564687e-10
2.775360122e-10
2.755137835e-10
2.734977494e-10
2.714876667e-10
2.6948329e-10
2.674843572e-10
2.654905603e-10
2.635014997e-10
2.615165996e-10
2.595349659e-10
2.575551293e-10
2.555745972e-10
2.535890553e-10
2.515909573e-10
2.49567013e-10
2.475126338e-10
2.454387382e-10
2.433528405e-10
2.412601562e-10
2.391643625e-10
2.370680945e-10
2.349731669e-10
2.328812928e-10
2.307937232e-10
2.287112451e-10
2.266345621e-10
2.245643203e-10
2.225011329e-10
2.204455916e-10
2.183982805e-10
2.163597789e-10
2.143306688e-10
2.123115335e-10
2.103029625e-10
2.08305548e-10
2.063198868e-10
2.043465758e-10
2.023862137e-10
2.004393937e-10
1.985067026e-10
1.965887113e-10
1.946859678e-10
1.927989791e-10
1.909281881e-10
1.89073929e-10
1.872363583e-10
1.854153293e-10
1.836101831e-10
1.818193786e-10
1.800398591e-10
1.782659426e-10
1.764893589e-10
1.747183325e-10
1.729586331e-10
1.712143682e-10
1.694885214e-10
1.677833108e-10
1.661004348e-10
1.644412322e-10
1.628067945e-10
1.611980368e-10
1.596157499e-10
1.580606306e-10
1.565333054e-10
1.550343434e-10
1.535642674e-10
1.521235586e-10
1.507126616e-10
1.49331986e-10
1.479819087e-10
1.466627739e-10
1.453748946e-10
1.441185515e-10
1.42893994e-10
1.417014396e-10
1.405410739e-10
1.394130508e-10
1.383174915e-10
1.372544853e-10
1.362240892e-10
1.352263276e-10
1.342611925e-10
1.333286437e-10
1.324286084e-10
1.315609822e-10
1.307256278e-10
1.29922377e-10
1.29151029e-10
1.28411353e-10
1.277030859e-10
1.27025935e-10
1.263795766e-10
1.257636583e-10
1.25177797e-10
1.246215821e-10
1.240945738e-10
1.235963057e-10
1.231262831e-10
1.226839859e-10
1.222688675e-10
1.218803573e-10
1.21517859e-10
1.211807539e-10
1.208683994e-10
1.205801326e-10
1.203152673e-10
1.20073099e-10
1.198529021e-10
1.196539345e-10
1.194754353e-10
1.193166289e-10
1.191767244e-10
1.190549205e-10
1.189504049e-10
1.188623622e-10
1.187899769e-10
1.187324447e-10
1.186889804e-10
1.186588377e-10
1.186413346e-10
1.186359422e-10
1.18638858e-10
1.186487654e-10
1.186674137e-10
1.186940925e-10
1.187277377e-10
1.187673211e-10
1.18811842e-10
1.188603252e-10
1.189118119e-10
1.189653594e-10
1.190200355e-10
1.190749207e-10
1.191291031e-10
1.191816836e-10
1.192317731e-10
1.192784988e-10
1.193210035e-10
1.193584552e-10
1.193900535e-10
1.194150502e-10
1.194327875e-10
1.194428142e-10
1.194422163e-10
1.19429603e-10
1.194057056e-10
1.193708024e-10
1.193239167e-10
1.192641875e-10
1.191908269e-10
1.191030994e-10
1.19000306e-10
1.188817822e-10
1.18746888e-10
1.185948076e-10
1.184245587e-10
1.182355926e-10
1.180272527e-10
1.17799862e-10
1.175535786e-10
1.172884335e-10
1.170044032e-10
1.16701415e-10
1.163793037e-10
1.16037702e-10
1.156758158e-10
1.152919998e-10
1.148829697e-10
1.144423619e-10
1.139581102e-10
1.134076821e-10
1.127494411e-10
1.11907003e-10
1.107409216e-10
1.089974695e-10
1.062160309e-10
1.015617176e-10
9.352292764e-11
7.936497859e-11
5.414328141e-11
3.69272393e-11
2.517664501e-11
1.715750501e-11
1.168605549e-11
7.954066854e-12
5.409634401e-12
3.675836761e-12
2.49523236e-12
1.691981842e-12
1.145992899e-12
7.752654995e-13
5.238316629e-13
3.535134178e-13
2.382880273e-13
1.604347097e-13
1.07899409e-13
7.249284341e-14
4.865883581e-14
3.263300006e-14
2.186859226e-14
1.464513454e-14
9.801984248e-15
6.557229112e-15
4.384777326e-15
2.931079258e-15
1.958794818e-15
1.30874957e-15
8.742819622e-16
5.839711085e-16
3.900229602e-16
2.604707182e-16
1.739424979e-16
1.161545568e-16
7.756292374e-17
5.179184195e-17
3.458265426e-17
2.309109396e-17
1.541766285e-17
1.029386533e-17
6.87261448e-18
4.588243641e-18
3.063015901e-18
2.044690593e-18
1.364830823e-18
9.10962108e-19
6.079803851e-19
4.057366312e-19
2.707459877e-19
1.80651226e-19
1.205254954e-19
8.040337404e-20
5.363216267e-20
3.577095538e-20
2.385550503e-20
1.59073687e-20
1.060617283e-20
7.070803988e-21
4.713330903e-21
3.14148904e-21
2.093588265e-21
1.395066444e-21
9.294935102e-22
6.192211628e-22
4.124710461e-22
2.747197045e-22
1.82951264e-22
1.218234716e-22
8.111055037e-23
5.399772624e-23
3.594400272e-23
2.392386571e-23
1.592177556e-23
1.059517475e-23
7.049895612e-24
4.690473537e-24
3.120413486e-24
2.075735423e-24
1.380709156e-24
9.183678669e-25
6.108746128e-25
4.064507807e-25
2.70681929e-25
1.807448345e-25
1.215945523e-25
8.348053709e-26
6.039493361e-26
4.922781899e-26
)
;

boundaryField
{
    inlet
    {
        type            fixedValue;
        value           uniform 0;
    }
    outlet
    {
        type            zeroGradient;
    }
    upperWall
    {
        type            empty;
    }
    lowerWall
    {
        type            empty;
    }
    frontAndBack
    {
        type            empty;
    }
}


// ************************************************************************* //
