/*--------------------------------*- C++ -*----------------------------------*\
  =========                 |
  \\      /  F ield         | OpenFOAM: The Open Source CFD Toolbox
   \\    /   O peration     | Website:  https://openfoam.org
    \\  /    A nd           | Version:  9
     \\/     M anipulation  |
\*---------------------------------------------------------------------------*/
FoamFile
{
    format      ascii;
    class       volScalarField;
    location    "0.019";
    object      YNO;
}
// * * * * * * * * * * * * * * * * * * * * * * * * * * * * * * * * * * * * * //

dimensions      [0 0 0 0 0 0 0];

internalField   nonuniform List<scalar> 
1000
(
1.15631051e-14
3.468937101e-14
5.781561492e-14
8.094179018e-14
1.040678839e-13
1.271939088e-13
1.503198906e-13
1.734458565e-13
1.965718279e-13
2.196978169e-13
2.428238272e-13
2.659498559e-13
2.890758971e-13
3.122019438e-13
3.353279904e-13
3.584540333e-13
3.815800711e-13
4.04706104e-13
4.278321334e-13
4.509581608e-13
4.740841879e-13
4.972102156e-13
5.203362445e-13
5.434622746e-13
5.665883057e-13
5.897143375e-13
6.128403697e-13
6.359664018e-13
6.590924339e-13
6.822184659e-13
7.053444977e-13
7.284705296e-13
7.515965615e-13
7.747225936e-13
7.978486259e-13
8.209746584e-13
8.441006911e-13
8.67226724e-13
8.903527571e-13
9.134787904e-13
9.366048237e-13
9.597308571e-13
9.828568906e-13
1.005982924e-12
1.029108958e-12
1.052234991e-12
1.075361025e-12
1.098487058e-12
1.121613091e-12
1.144739124e-12
1.167865157e-12
1.19099119e-12
1.214117222e-12
1.237243254e-12
1.260369286e-12
1.283495318e-12
1.306621349e-12
1.32974738e-12
1.35287341e-12
1.375999441e-12
1.39912547e-12
1.4222515e-12
1.445377529e-12
1.468503557e-12
1.491629585e-12
1.514755612e-12
1.537881639e-12
1.561007666e-12
1.584133691e-12
1.607259717e-12
1.630385741e-12
1.653511765e-12
1.676637788e-12
1.69976381e-12
1.722889831e-12
1.746015852e-12
1.769141871e-12
1.792267889e-12
1.815393905e-12
1.83851992e-12
1.861645933e-12
1.884771944e-12
1.907897953e-12
1.931023959e-12
1.954149963e-12
1.977275963e-12
2.00040196e-12
2.023527953e-12
2.046653941e-12
2.069779925e-12
2.092905902e-12
2.116031873e-12
2.139157836e-12
2.162283791e-12
2.185409735e-12
2.208535667e-12
2.231661585e-12
2.254787486e-12
2.277913368e-12
2.301039226e-12
2.324165057e-12
2.347290853e-12
2.37041661e-12
2.393542318e-12
2.416667967e-12
2.439793544e-12
2.462919036e-12
2.486044424e-12
2.509169686e-12
2.532294795e-12
2.555419719e-12
2.57854442e-12
2.601668851e-12
2.624792956e-12
2.647916669e-12
2.671039911e-12
2.694162586e-12
2.717284584e-12
2.74040577e-12
2.76352599e-12
2.786645057e-12
2.809762757e-12
2.832878836e-12
2.855992997e-12
2.879104898e-12
2.902214138e-12
2.925320254e-12
2.948422714e-12
2.971520902e-12
2.994614114e-12
3.017701542e-12
3.040782265e-12
3.063855236e-12
3.086919266e-12
3.109973012e-12
3.133014955e-12
3.156043392e-12
3.179056411e-12
3.202051873e-12
3.225027398e-12
3.247980338e-12
3.27090776e-12
3.293806425e-12
3.316672766e-12
3.339502865e-12
3.362292435e-12
3.385036798e-12
3.407730866e-12
3.43036912e-12
3.452945593e-12
3.475453858e-12
3.497887008e-12
3.520237649e-12
3.542497889e-12
3.564659334e-12
3.586713081e-12
3.608649727e-12
3.630459365e-12
3.652131601e-12
3.673655563e-12
3.695019923e-12
3.716212917e-12
3.737222379e-12
3.758035766e-12
3.778640207e-12
3.799022537e-12
3.819169351e-12
3.839067057e-12
3.85870193e-12
3.878060178e-12
3.897128001e-12
3.915891666e-12
3.934337572e-12
3.952452327e-12
3.97022282e-12
3.987636295e-12
4.004680427e-12
4.021343396e-12
4.03761396e-12
4.053481521e-12
4.068936199e-12
4.083968887e-12
4.098571319e-12
4.112736114e-12
4.126456831e-12
4.139728007e-12
4.152545196e-12
4.164904989e-12
4.176805043e-12
4.188244088e-12
4.199221936e-12
4.209739473e-12
4.219798654e-12
4.229402481e-12
4.238554979e-12
4.247261162e-12
4.255526998e-12
4.263359358e-12
4.27076597e-12
4.277755359e-12
4.284336792e-12
4.290520207e-12
4.296316155e-12
4.30173572e-12
4.30679046e-12
4.311492325e-12
4.315853595e-12
4.319886799e-12
4.323604656e-12
4.327019999e-12
4.330145713e-12
4.332994667e-12
4.33557966e-12
4.337913351e-12
4.340008208e-12
4.341876445e-12
4.343529967e-12
4.344980316e-12
4.346238626e-12
4.347315585e-12
4.348221427e-12
4.348965963e-12
4.349558768e-12
4.350009566e-12
4.350328229e-12
4.350522369e-12
4.35058885e-12
4.350600264e-12
4.350597384e-12
4.350606109e-12
4.350610752e-12
4.350609954e-12
4.350607765e-12
4.350583882e-12
4.350602652e-12
4.350618139e-12
4.350602388e-12
4.350626761e-12
4.35063829e-12
4.350617194e-12
4.350636834e-12
4.350643934e-12
4.350621147e-12
4.350640335e-12
4.350648068e-12
4.350626064e-12
4.350646131e-12
4.350655584e-12
4.350635277e-12
4.350657645e-12
4.350672277e-12
4.350654416e-12
4.350675351e-12
4.350682196e-12
4.350660984e-12
4.350683583e-12
4.350700017e-12
4.35068422e-12
4.350706892e-12
4.350720283e-12
4.350713371e-12
4.350713588e-12
4.350715064e-12
4.350712779e-12
4.350692112e-12
4.350706454e-12
4.350716941e-12
4.350697363e-12
4.350716076e-12
4.35072621e-12
4.350724951e-12
4.35072462e-12
4.350714008e-12
4.350730924e-12
4.350735503e-12
4.350722395e-12
4.350742572e-12
4.350768925e-12
4.350768113e-12
4.350769635e-12
4.350767661e-12
4.350760375e-12
4.350754958e-12
4.35074635e-12
4.35072796e-12
4.350738596e-12
4.350740692e-12
4.350729641e-12
4.350727986e-12
4.350724711e-12
4.350725e-12
4.350712372e-12
4.350705291e-12
4.350704263e-12
4.350699741e-12
4.350682461e-12
4.350665865e-12
4.35065033e-12
4.350616359e-12
4.350618682e-12
4.350623139e-12
4.350602846e-12
4.350628441e-12
4.350665231e-12
4.35066354e-12
4.350661885e-12
4.350643153e-12
4.35063824e-12
4.350636529e-12
4.350621878e-12
4.35063963e-12
4.350642253e-12
4.350616803e-12
4.350633627e-12
4.350636769e-12
4.350611311e-12
4.350628589e-12
4.350634987e-12
4.35061269e-12
4.350632771e-12
4.350642146e-12
4.350621325e-12
4.350642418e-12
4.350653806e-12
4.350636243e-12
4.350664956e-12
4.350713333e-12
4.350715182e-12
4.350708844e-12
4.350696139e-12
4.3507105e-12
4.350730724e-12
4.350725274e-12
4.350716069e-12
4.35069428e-12
4.350705686e-12
4.35070611e-12
4.35068093e-12
4.350699332e-12
4.350709471e-12
4.350690957e-12
4.350708444e-12
4.350715578e-12
4.350710202e-12
4.350697881e-12
4.350698513e-12
4.35069865e-12
4.350677783e-12
4.350675026e-12
4.350673688e-12
4.350698859e-12
4.350711632e-12
4.350692259e-12
4.350713455e-12
4.350721547e-12
4.350698662e-12
4.350717132e-12
4.350723113e-12
4.35069969e-12
4.350718272e-12
4.350724931e-12
4.350702044e-12
4.350721108e-12
4.350728626e-12
4.350706733e-12
4.350727778e-12
4.350744645e-12
4.350741158e-12
4.350739364e-12
4.350722486e-12
4.350741133e-12
4.350751043e-12
4.350731332e-12
4.350753758e-12
4.350767601e-12
4.350752023e-12
4.350782534e-12
4.350830181e-12
4.350828953e-12
4.350822865e-12
4.350846074e-12
4.350862938e-12
4.35084734e-12
4.350869028e-12
4.350881161e-12
4.350880309e-12
4.350876224e-12
4.350870855e-12
4.35088612e-12
4.350891062e-12
4.350883406e-12
4.35086401e-12
4.350876685e-12
4.350880049e-12
4.350857095e-12
4.350878961e-12
4.350902828e-12
4.350898514e-12
4.350895261e-12
4.350907188e-12
4.350910338e-12
4.350893164e-12
4.350909777e-12
4.350914568e-12
4.350907216e-12
4.350906161e-12
4.350907931e-12
4.350908843e-12
4.350896497e-12
4.350873981e-12
4.350859926e-12
4.350855681e-12
4.350859595e-12
4.350866648e-12
4.350859147e-12
4.350840698e-12
4.35084011e-12
4.3508644e-12
4.350867497e-12
4.35085718e-12
4.350874085e-12
4.350879842e-12
4.350868403e-12
4.350871314e-12
4.350870302e-12
4.35086252e-12
4.350848176e-12
4.350864722e-12
4.350871499e-12
4.350855453e-12
4.350855881e-12
4.350850746e-12
4.350868009e-12
4.350882766e-12
4.350879493e-12
4.35087274e-12
4.350866656e-12
4.350865887e-12
4.350864764e-12
4.350863306e-12
4.350848637e-12
4.35083495e-12
4.350819087e-12
4.350801405e-12
4.350779964e-12
4.350762909e-12
4.350748233e-12
4.35073227e-12
4.350709892e-12
4.350673101e-12
4.350608778e-12
4.350494286e-12
4.350305663e-12
4.350018459e-12
4.349605954e-12
4.349043071e-12
4.348330989e-12
4.347583799e-12
4.347307642e-12
4.348454045e-12
4.354037612e-12
4.372591831e-12
4.427166326e-12
4.579968044e-12
4.998323087e-12
6.130851599e-12
9.177817756e-12
1.733658898e-11
3.904380144e-11
9.610535102e-11
2.426628673e-10
6.037693947e-10
1.434038943e-09
3.163680694e-09
6.274841697e-09
1.07595162e-08
1.714590785e-08
2.619488746e-08
3.853314148e-08
5.442420776e-08
7.337377322e-08
9.414645406e-08
1.15283549e-07
1.356129209e-07
1.543787341e-07
1.713101963e-07
1.863963737e-07
1.997661671e-07
2.115977947e-07
2.220781362e-07
2.313835642e-07
2.396723848e-07
2.470832912e-07
2.537349282e-07
2.597297481e-07
2.651536345e-07
2.70080636e-07
2.745728999e-07
2.78683944e-07
2.824599131e-07
2.859400342e-07
2.891579736e-07
2.921427815e-07
2.949195415e-07
2.975099233e-07
2.999326746e-07
3.022040422e-07
3.043381524e-07
3.063473434e-07
3.08242329e-07
3.100322801e-07
3.117252665e-07
3.133284754e-07
3.148483226e-07
3.162902436e-07
3.176592246e-07
3.189598508e-07
3.201960408e-07
3.213715833e-07
3.224898337e-07
3.235539608e-07
3.245669624e-07
3.255315979e-07
3.264505841e-07
3.273264177e-07
3.281615794e-07
3.28958401e-07
3.297191464e-07
3.304460431e-07
3.311411405e-07
3.318065949e-07
3.32444255e-07
3.330560246e-07
3.336437105e-07
3.34208959e-07
3.347534481e-07
3.352786589e-07
3.357859836e-07
3.362768195e-07
3.367523548e-07
3.372136859e-07
3.37661896e-07
3.380979191e-07
3.38522559e-07
3.389365906e-07
3.39340759e-07
3.397356026e-07
3.401216283e-07
3.404993248e-07
3.408691244e-07
3.41231318e-07
3.415861777e-07
3.419339688e-07
3.422749521e-07
3.426092539e-07
3.429369954e-07
3.432583026e-07
3.435733177e-07
3.438821484e-07
3.441848454e-07
3.4448147e-07
3.447721018e-07
3.450568459e-07
3.453358107e-07
3.456090507e-07
3.458766375e-07
3.46138663e-07
3.463952436e-07
3.46646526e-07
3.468926413e-07
3.471336943e-07
3.473698047e-07
3.476011081e-07
3.478277579e-07
3.480499272e-07
3.482678119e-07
3.484815502e-07
3.486912871e-07
3.488971736e-07
3.49099367e-07
3.492980319e-07
3.494933413e-07
3.4968548e-07
3.498745925e-07
3.500608075e-07
3.502442514e-07
3.50425048e-07
3.506033195e-07
3.507791871e-07
3.509527731e-07
3.511242035e-07
3.512935782e-07
3.514609711e-07
3.516264509e-07
3.517900814e-07
3.519519227e-07
3.521120317e-07
3.522704642e-07
3.524272764e-07
3.525825277e-07
3.527362731e-07
3.528885342e-07
3.530393303e-07
3.531886787e-07
3.533365958e-07
3.534830973e-07
3.536281995e-07
3.537719204e-07
3.539142808e-07
3.540553061e-07
3.541950286e-07
3.543334711e-07
3.544706403e-07
3.546065437e-07
3.547411899e-07
3.548745891e-07
3.550067531e-07
3.551376953e-07
3.552674315e-07
3.553959801e-07
3.555233626e-07
3.556496046e-07
3.557747368e-07
3.558987969e-07
3.560218018e-07
3.561437664e-07
3.562647058e-07
3.563846359e-07
3.565035725e-07
3.56621532e-07
3.567385308e-07
3.568545857e-07
3.569697137e-07
3.570839325e-07
3.571972605e-07
3.573097172e-07
3.574213243e-07
3.575321062e-07
3.576420919e-07
3.577512901e-07
3.578597088e-07
3.579673554e-07
3.580742365e-07
3.581803584e-07
3.582857263e-07
3.583903452e-07
3.584942195e-07
3.585973531e-07
3.586997498e-07
3.588014129e-07
3.58902346e-07
3.590025528e-07
3.591020377e-07
3.592008059e-07
3.592988643e-07
3.593962223e-07
3.594928929e-07
3.595888782e-07
3.596841775e-07
3.597787899e-07
3.598727146e-07
3.599659509e-07
3.600584982e-07
3.601503559e-07
3.602415236e-07
3.60332001e-07
3.604217878e-07
3.605108839e-07
3.605992895e-07
3.606870047e-07
3.6077403e-07
3.608603659e-07
3.609460132e-07
3.610309731e-07
3.611152471e-07
3.611988374e-07
3.612817468e-07
3.613639793e-07
3.614455407e-07
3.615264388e-07
3.616066799e-07
3.616862631e-07
3.617651879e-07
3.618434534e-07
3.619210588e-07
3.619980032e-07
3.620742855e-07
3.621499047e-07
3.622248597e-07
3.622991493e-07
3.623727722e-07
3.62445727e-07
3.625180124e-07
3.625896269e-07
3.626605691e-07
3.627308375e-07
3.628004307e-07
3.628693472e-07
3.629375855e-07
3.630051445e-07
3.630720228e-07
3.631382194e-07
3.632037335e-07
3.632685643e-07
3.633327117e-07
3.633961757e-07
3.63458957e-07
3.635210569e-07
3.63582478e-07
3.636432236e-07
3.637032993e-07
3.637627127e-07
3.638214652e-07
3.638795577e-07
3.63936992e-07
3.639937697e-07
3.640498931e-07
3.641053649e-07
3.641601881e-07
3.642143661e-07
3.64267903e-07
3.643208031e-07
3.643730713e-07
3.644247129e-07
3.644757337e-07
3.645261399e-07
3.645759383e-07
3.646251361e-07
3.646737411e-07
3.647217614e-07
3.64769206e-07
3.64816084e-07
3.648624053e-07
3.649081802e-07
3.649534196e-07
3.64998135e-07
3.650423383e-07
3.650860421e-07
3.651292597e-07
3.651720049e-07
3.652142923e-07
3.652561372e-07
3.652975559e-07
3.653385653e-07
3.653791838e-07
3.654194309e-07
3.654593277e-07
3.654988971e-07
3.655381604e-07
3.655771349e-07
3.656158385e-07
3.656542893e-07
3.656925057e-07
3.657305066e-07
3.65768311e-07
3.658059383e-07
3.658434079e-07
3.658807398e-07
3.659179538e-07
3.659550701e-07
3.65992109e-07
3.66029091e-07
3.660660365e-07
3.661029662e-07
3.661399008e-07
3.661768611e-07
3.662138676e-07
3.662509413e-07
3.662881026e-07
3.663253722e-07
3.663627707e-07
3.664003186e-07
3.664380359e-07
3.664759431e-07
3.665140601e-07
3.66552407e-07
3.665910033e-07
3.666298691e-07
3.666690239e-07
3.667084874e-07
3.667482794e-07
3.667884201e-07
3.668289298e-07
3.668698295e-07
3.669111403e-07
3.669528761e-07
3.6699505e-07
3.670376748e-07
3.670807624e-07
3.671243241e-07
3.671683704e-07
3.672129112e-07
3.672579555e-07
3.673035117e-07
3.673495872e-07
3.673961889e-07
3.674433226e-07
3.674909935e-07
3.675392058e-07
3.67587963e-07
3.676372674e-07
3.67687121e-07
3.677375242e-07
3.677884773e-07
3.67839979e-07
3.678920276e-07
3.679446202e-07
3.679977533e-07
3.680514221e-07
3.681056214e-07
3.681603446e-07
3.682155848e-07
3.682713335e-07
3.683275821e-07
3.683843206e-07
3.684415384e-07
3.68499224e-07
3.68557365e-07
3.686159484e-07
3.686749604e-07
3.687343861e-07
3.687942102e-07
3.688544166e-07
3.689149884e-07
3.689759081e-07
3.690371576e-07
3.690987179e-07
3.691605696e-07
3.692226927e-07
3.692850666e-07
3.693476702e-07
3.694104819e-07
3.694734795e-07
3.695366406e-07
3.69599942e-07
3.696633606e-07
3.697268725e-07
3.697904537e-07
3.698540799e-07
3.699177264e-07
3.699813684e-07
3.700449809e-07
3.701085386e-07
3.701720162e-07
3.702353882e-07
3.702986289e-07
3.703617128e-07
3.704246143e-07
3.704873076e-07
3.705497671e-07
3.706119674e-07
3.706738829e-07
3.707354883e-07
3.707967584e-07
3.708576681e-07
3.709181925e-07
3.709783071e-07
3.710379874e-07
3.710972093e-07
3.711559488e-07
3.712141825e-07
3.712718871e-07
3.713290398e-07
3.713856179e-07
3.714415994e-07
3.714969625e-07
3.715516858e-07
3.716057483e-07
3.716591298e-07
3.7171181e-07
3.717637696e-07
3.718149893e-07
3.718654507e-07
3.719151356e-07
3.719640266e-07
3.720121067e-07
3.720593593e-07
3.721057686e-07
3.721513193e-07
3.721959965e-07
3.722397863e-07
3.722826749e-07
3.723246497e-07
3.72365698e-07
3.724058086e-07
3.724449704e-07
3.724831732e-07
3.725204075e-07
3.725566645e-07
3.725919364e-07
3.726262161e-07
3.726594976e-07
3.726917758e-07
3.727230463e-07
3.727533062e-07
3.72782553e-07
3.728107859e-07
3.728380047e-07
3.72864211e-07
3.728894073e-07
3.729135978e-07
3.729367879e-07
3.729589851e-07
3.729801982e-07
3.73000438e-07
3.730197173e-07
3.730380508e-07
3.730554555e-07
3.730719506e-07
3.730875575e-07
3.731022999e-07
3.731162033e-07
3.731292949e-07
3.73141602e-07
3.731531449e-07
3.731639428e-07
3.731740155e-07
3.73183383e-07
3.731920657e-07
3.732000843e-07
3.732074594e-07
3.732142121e-07
3.732203635e-07
3.732259348e-07
3.732309475e-07
3.73235423e-07
3.732393828e-07
3.732428484e-07
3.732458414e-07
3.732483831e-07
3.732504947e-07
3.732521971e-07
3.732535109e-07
3.732544568e-07
3.732550579e-07
3.732553441e-07
3.732553691e-07
3.732552956e-07
3.732551931e-07
3.732549115e-07
3.732543691e-07
3.732535902e-07
3.732525978e-07
3.732514139e-07
3.732500601e-07
3.732485573e-07
3.732469262e-07
3.73245187e-07
3.732433593e-07
3.732414628e-07
3.732395165e-07
3.732375392e-07
3.732355496e-07
3.732335658e-07
3.732316059e-07
3.732296874e-07
3.732278279e-07
3.732260444e-07
3.732243539e-07
3.732227731e-07
3.732213183e-07
3.73220006e-07
3.732188522e-07
3.732178729e-07
3.732170838e-07
3.732164987e-07
3.732161202e-07
3.732161603e-07
3.732167315e-07
3.732177359e-07
3.732190516e-07
3.732206956e-07
3.732226836e-07
3.73225031e-07
3.732277525e-07
3.732308629e-07
3.732343763e-07
3.732383066e-07
3.73242667e-07
3.7324747e-07
3.732527273e-07
3.73258449e-07
3.732646434e-07
3.732713169e-07
3.732784723e-07
3.732861086e-07
3.732942196e-07
3.733027918e-07
3.733118026e-07
3.733212175e-07
3.73330986e-07
3.733410373e-07
3.733512735e-07
3.733615621e-07
3.733717253e-07
3.733815265e-07
3.733906535e-07
3.733986961e-07
3.734051179e-07
3.734092207e-07
)
;

boundaryField
{
    inlet
    {
        type            fixedValue;
        value           uniform 0;
    }
    outlet
    {
        type            zeroGradient;
    }
    upperWall
    {
        type            empty;
    }
    lowerWall
    {
        type            empty;
    }
    frontAndBack
    {
        type            empty;
    }
}


// ************************************************************************* //
