/*--------------------------------*- C++ -*----------------------------------*\
  =========                 |
  \\      /  F ield         | OpenFOAM: The Open Source CFD Toolbox
   \\    /   O peration     | Website:  https://openfoam.org
    \\  /    A nd           | Version:  9
     \\/     M anipulation  |
\*---------------------------------------------------------------------------*/
FoamFile
{
    format      ascii;
    class       volScalarField;
    location    "0.019";
    object      Z;
}
// * * * * * * * * * * * * * * * * * * * * * * * * * * * * * * * * * * * * * //

dimensions      [0 0 0 0 0 0 0];

internalField   nonuniform List<scalar> 
1000
(
0.014462
0.014462
0.014462
0.014462
0.014462
0.014462
0.014462
0.014462
0.014462
0.014462
0.014462
0.014462
0.014462
0.014462
0.014462
0.014462
0.014462
0.014462
0.014462
0.014462
0.014462
0.014462
0.014462
0.014462
0.014462
0.014462
0.014462
0.014462
0.014462
0.014462
0.014462
0.014462
0.014462
0.014462
0.014462
0.014462
0.014462
0.014462
0.014462
0.014462
0.014462
0.014462
0.014462
0.014462
0.014462
0.014462
0.014462
0.014462
0.014462
0.014462
0.014462
0.014462
0.014462
0.014462
0.014462
0.014462
0.014462
0.014462
0.014462
0.014462
0.014462
0.014462
0.014462
0.014462
0.014462
0.014462
0.014462
0.014462
0.014462
0.014462
0.014462
0.014462
0.014462
0.014462
0.014462
0.014462
0.014462
0.014462
0.014462
0.014462
0.014462
0.014462
0.014462
0.014462
0.014462
0.014462
0.014462
0.014462
0.014462
0.014462
0.014462
0.014462
0.014462
0.014462
0.014462
0.014462
0.014462
0.014462
0.014462
0.014462
0.014462
0.014462
0.014462
0.014462
0.014462
0.014462
0.014462
0.014462
0.014462
0.014462
0.014462
0.014462
0.014462
0.014462
0.014462
0.014462
0.014462
0.014462
0.014462
0.014462
0.014462
0.014462
0.014462
0.014462
0.014462
0.014462
0.014462
0.014462
0.014462
0.014462
0.014462
0.014462
0.014462
0.014462
0.014462
0.014462
0.014462
0.014462
0.014462
0.014462
0.014462
0.014462
0.014462
0.014462
0.014462
0.014462
0.014462
0.014462
0.014462
0.014462
0.014462
0.014462
0.014462
0.014462
0.014462
0.014462
0.014462
0.014462
0.014462
0.014462
0.014462
0.014462
0.014462
0.014462
0.014462
0.014462
0.014462
0.014462
0.014462
0.014462
0.014462
0.014462
0.014462
0.014462
0.014462
0.014462
0.014462
0.014462
0.014462
0.014462
0.014462
0.014462
0.014462
0.014462
0.014462
0.014462
0.014462
0.014462
0.014462
0.014462
0.014462
0.014462
0.014462
0.014462
0.014462
0.014462
0.014462
0.014462
0.014462
0.014462
0.014462
0.014462
0.014462
0.014462
0.014462
0.014462
0.014462
0.014462
0.014462
0.014462
0.014462
0.014462
0.014462
0.014462
0.014462
0.014462
0.014462
0.014462
0.014462
0.014462
0.014462
0.014462
0.014462
0.014462
0.014462
0.014462
0.014462
0.014462
0.014462
0.014462
0.014462
0.014462
0.014462
0.014462
0.014462
0.014462
0.014462
0.014462
0.014462
0.014462
0.014462
0.014462
0.014462
0.014462
0.014462
0.014462
0.014462
0.014462
0.014462
0.014462
0.014462
0.014462
0.014462
0.014462
0.014462
0.014462
0.014462
0.014462
0.014462
0.014462
0.014462
0.014462
0.014462
0.014462
0.014462
0.014462
0.014462
0.014462
0.014462
0.014462
0.014462
0.014462
0.014462
0.014462
0.014462
0.014462
0.014462
0.014462
0.014462
0.014462
0.014462
0.014462
0.014462
0.014462
0.014462
0.014462
0.014462
0.014462
0.014462
0.014462
0.014462
0.014462
0.014462
0.014462
0.014462
0.014462
0.014462
0.014462
0.014462
0.014462
0.014462
0.014462
0.014462
0.014462
0.014462
0.014462
0.014462
0.014462
0.014462
0.014462
0.014462
0.014462
0.014462
0.014462
0.014462
0.014462
0.014462
0.014462
0.014462
0.014462
0.014462
0.014462
0.014462
0.014462
0.014462
0.014462
0.014462
0.014462
0.014462
0.014462
0.014462
0.014462
0.014462
0.014462
0.014462
0.014462
0.014462
0.014462
0.014462
0.014462
0.014462
0.014462
0.014462
0.014462
0.014462
0.014462
0.014462
0.014462
0.014462
0.014462
0.014462
0.014462
0.014462
0.014462
0.014462
0.014462
0.014462
0.014462
0.014462
0.014462
0.014462
0.014462
0.014462
0.014462
0.014462
0.014462
0.014462
0.014462
0.014462
0.014462
0.014462
0.014462
0.014462
0.014462
0.014462
0.014462
0.014462
0.014462
0.014462
0.014462
0.014462
0.014462
0.014462
0.014462
0.014462
0.014462
0.014462
0.014462
0.014462
0.014462
0.014462
0.014462
0.014462
0.014462
0.014462
0.014462
0.014462
0.014462
0.014462
0.014462
0.014462
0.014462
0.014462
0.01446199999
0.01446199999
0.01446199999
0.01446199999
0.01446199998
0.01446199998
0.01446199997
0.01446199996
0.01446199994
0.01446199992
0.01446199989
0.01446199985
0.0144619998
0.01446199973
0.01446199964
0.01446199951
0.01446199933
0.0144619991
0.01446199877
0.01446199834
0.01446199775
0.01446199695
0.01446199586
0.01446199439
0.0144619924
0.01446198969
0.01446198603
0.01446198106
0.01446197433
0.01446196521
0.01446195284
0.01446193608
0.01446191336
0.01446188256
0.01446184083
0.01446178426
0.01446170759
0.01446160367
0.01446146282
0.01446127192
0.01446101319
0.01446066251
0.01446018722
0.01445954305
0.01445867
0.01445748674
0.0144558831
0.01445370976
0.01445076438
0.01444677282
0.01444136361
0.01443403348
0.01442410059
0.01441064131
0.01439240472
0.01436769716
0.01433422684
0.01428889556
0.01422751986
0.01414446516
0.01403217225
0.01388056972
0.01367640258
0.01340262743
0.01303833384
0.01256044725
0.01195017511
0.01120976686
0.01039458849
0.009637218956
0.00912571558
0.00904121548
0.009346633232
0.009948421325
0.01072974172
0.01157633272
0.01235214701
0.01296917927
0.01341287674
0.01371353137
0.01391221427
0.01404452454
0.01413468842
0.0141980979
0.01424405454
0.01427828043
0.01430436357
0.01432462364
0.01434061004
0.01435339165
0.01436371769
0.01437214225
0.01437906929
0.01438480973
0.01438959906
0.0143936237
0.01439703151
0.01439993924
0.01440244045
0.01440461063
0.01440651067
0.01440818969
0.01440968725
0.01441103516
0.01441225892
0.01441337893
0.01441441098
0.01441536707
0.01441625675
0.01441708754
0.01441786502
0.01441859288
0.01441927428
0.01441991147
0.0144205058
0.01442105867
0.01442157086
0.01442204326
0.01442247668
0.01442287192
0.01442323
0.01442355196
0.01442383911
0.01442409283
0.01442431473
0.01442450656
0.01442467018
0.0144248077
0.01442492105
0.01442501245
0.01442508406
0.01442513802
0.01442517656
0.01442520168
0.01442521544
0.01442521984
0.01442521725
0.0144252088
0.01442519596
0.01442518016
0.01442516263
0.01442514452
0.0144251268
0.01442511021
0.01442509543
0.01442508301
0.01442507336
0.01442506671
0.01442506323
0.01442506314
0.01442506638
0.01442507286
0.01442508225
0.01442509436
0.01442510898
0.01442512583
0.01442514459
0.01442516498
0.0144251867
0.01442520946
0.01442523299
0.01442525697
0.01442528117
0.01442530536
0.01442532934
0.01442535296
0.01442537607
0.01442539853
0.01442542027
0.01442544122
0.01442546137
0.01442548071
0.01442549928
0.0144255171
0.01442553423
0.01442555075
0.01442556674
0.01442558233
0.01442559763
0.01442561275
0.01442562782
0.01442564295
0.01442565827
0.01442567389
0.01442568995
0.01442570654
0.01442572379
0.01442574179
0.01442576062
0.01442578037
0.01442580109
0.01442582285
0.0144258457
0.01442586968
0.01442589483
0.01442592115
0.01442594868
0.0144259774
0.01442600731
0.0144260384
0.01442607065
0.01442610403
0.01442613852
0.01442617409
0.0144262107
0.0144262483
0.01442628687
0.01442632635
0.0144263667
0.01442640787
0.01442644982
0.01442649251
0.01442653588
0.0144265799
0.01442662452
0.01442666971
0.01442671543
0.01442676165
0.01442680831
0.01442685541
0.01442690289
0.01442695073
0.01442699889
0.01442704736
0.01442709609
0.01442714508
0.01442719429
0.0144272437
0.01442729329
0.01442734304
0.01442739292
0.01442744292
0.01442749302
0.01442754318
0.0144275934
0.01442764364
0.01442769388
0.0144277441
0.01442779428
0.01442784439
0.01442789441
0.01442794432
0.01442799408
0.01442804367
0.01442809308
0.01442814226
0.0144281912
0.01442823986
0.01442828821
0.01442833623
0.01442838387
0.0144284311
0.01442847788
0.01442852419
0.01442857007
0.0144286155
0.01442866044
0.01442870488
0.01442874878
0.01442879213
0.01442883489
0.01442887705
0.01442891859
0.01442895948
0.0144289997
0.01442903923
0.01442907805
0.01442911615
0.01442915351
0.01442919011
0.01442922593
0.01442926097
0.01442929521
0.01442932863
0.01442936122
0.01442939298
0.01442942389
0.01442945394
0.01442948313
0.01442951144
0.01442953888
0.01442956543
0.01442959109
0.01442961585
0.01442963972
0.01442966269
0.01442968476
0.01442970593
0.0144297262
0.01442974556
0.01442976403
0.0144297816
0.01442979828
0.01442981407
0.01442982898
0.01442984301
0.01442985617
0.01442986847
0.01442987991
0.01442989051
0.01442990027
0.01442990921
0.01442991734
0.01442992467
0.01442993122
0.014429937
0.01442994202
0.0144299463
0.01442994987
0.01442995273
0.01442995491
0.01442995643
0.0144299573
0.01442995754
0.01442995723
0.0144299563
0.01442995481
0.01442995281
0.01442995031
0.01442994735
0.01442994396
0.01442994015
0.01442993597
0.01442993144
0.0144299266
0.01442992148
0.0144299161
0.01442991052
0.01442990474
0.01442989882
0.01442989279
0.01442988668
0.01442988054
0.01442987438
0.01442986826
0.01442986221
0.01442985627
0.01442985047
0.01442984485
0.01442983945
0.0144298343
0.01442982945
0.01442982494
0.01442982079
0.01442981704
0.01442981374
0.01442981092
0.01442980861
0.01442980685
0.01442980568
0.01442980513
0.01442980523
0.01442980601
0.01442980756
0.01442980987
0.01442981297
0.0144298169
0.01442982167
0.01442982733
0.0144298339
0.0144298414
0.01442984987
0.01442985933
0.0144298698
0.01442988131
0.01442989388
0.01442990754
0.01442992229
0.01442993816
0.01442995517
0.01442997333
0.01442999265
0.01443001316
0.01443003485
0.01443005775
0.01443008185
0.01443010717
0.01443013371
0.01443016148
0.01443019047
0.01443022068
0.01443025213
0.01443028479
0.01443031867
0.01443035377
0.01443039007
0.01443042756
0.01443046624
0.01443050609
0.0144305471
0.01443058925
0.01443063253
0.01443067692
0.01443072239
0.01443076893
0.01443081651
0.01443086511
0.0144309147
0.01443096525
0.01443101674
0.01443106913
0.01443112239
0.0144311765
0.01443123141
0.01443128709
0.01443134351
0.01443140063
0.0144314584
0.0144315168
0.01443157577
0.01443163528
0.01443169529
0.01443175575
0.01443181662
0.01443187786
0.01443193942
0.01443200125
0.01443206332
0.01443212556
0.01443218795
0.01443225042
0.01443231294
0.01443237545
0.01443243792
0.01443250028
0.01443256251
0.01443262453
0.01443268632
0.01443274783
0.014432809
0.01443286979
0.01443293016
0.01443299005
0.01443304944
0.01443310826
0.01443316649
0.01443322407
0.01443328096
0.01443333712
0.01443339252
0.01443344711
0.01443350085
0.0144335537
0.01443360564
0.01443365662
0.01443370661
0.01443375558
0.01443380349
0.01443385031
0.01443389602
0.01443394058
0.01443398397
0.01443402617
0.01443406714
0.01443410687
0.01443414534
0.01443418251
0.01443421839
0.01443425294
0.01443428616
0.01443431802
0.01443434852
0.01443437765
0.01443440539
0.01443443173
0.01443445668
0.01443448023
0.01443450236
0.01443452308
0.0144345424
0.0144345603
0.01443457679
0.01443459188
0.01443460557
0.01443461786
0.01443462877
0.01443463831
0.01443464648
0.01443465329
0.01443465877
0.01443466292
0.01443466577
0.01443466733
0.01443466757
0.01443466666
0.0144346644
0.01443466093
0.01443465627
0.01443465045
0.0144346435
0.01443463544
0.0144346263
0.01443461612
0.01443460492
0.01443459274
0.01443457961
0.01443456556
0.01443455064
0.01443453487
0.0144345183
0.01443450096
0.01443448291
0.01443446419
0.01443444485
0.01443442494
0.01443440453
0.01443438367
0.01443436245
0.01443434096
0.01443431933
0.01443429741
0.01443427524
0.01443425284
0.01443423028
0.01443420757
0.01443418477
0.01443416193
0.01443413907
0.01443411626
0.01443409352
0.01443407092
0.01443404848
0.01443402628
0.01443400434
0.01443398272
0.01443396146
0.01443394062
0.01443392025
0.01443390038
0.01443388107
0.01443386237
0.01443384433
0.014433827
0.01443381043
0.01443379466
0.01443377975
0.01443376575
0.01443375272
0.01443374069
0.01443372972
0.01443371987
0.01443371119
0.01443370372
0.01443369752
0.01443369264
0.01443368913
0.01443368706
0.01443368649
0.01443368735
0.01443368992
0.01443369418
0.01443370014
0.01443370784
0.01443371735
0.01443372871
0.01443374198
0.01443375721
0.01443377446
0.01443379377
0.01443381522
0.01443383883
0.01443386468
0.0144338928
0.01443392325
0.01443395609
0.01443399136
0.0144340291
0.01443406936
0.01443411219
0.01443415763
0.0144342057
0.01443425645
0.01443430989
0.01443436605
0.01443442493
0.01443448654
0.01443455085
0.01443461783
0.01443468744
0.01443475959
0.01443483418
0.01443491106
0.01443499005
0.01443507091
0.01443515331
0.01443523688
0.01443532112
0.01443540542
0.01443548902
0.014435571
0.01443565019
0.01443572521
0.01443579433
0.01443585547
0.01443590608
0.0144359431
0.01443596282
)
;

boundaryField
{
    inlet
    {
        type            fixedValue;
        value           uniform 0.014462;
    }
    outlet
    {
        type            zeroGradient;
    }
    upperWall
    {
        type            empty;
    }
    lowerWall
    {
        type            empty;
    }
    frontAndBack
    {
        type            empty;
    }
}


// ************************************************************************* //
